/*--------------------------------*- C++ -*----------------------------------*\
| =========                 |                                                 |
| \\      /  F ield         | OpenFOAM: The Open Source CFD Toolbox           |
|  \\    /   O peration     | Version:  v2012                                 |
|   \\  /    A nd           | Website:  www.openfoam.com                      |
|    \\/     M anipulation  |                                                 |
\*---------------------------------------------------------------------------*/
FoamFile
{
    version     2.0;
    format      ascii;
    class       volScalarField;
    location    "6.5";
    object      p;
}
// * * * * * * * * * * * * * * * * * * * * * * * * * * * * * * * * * * * * * //

dimensions      [0 2 -2 0 0 0 0];


internalField   nonuniform List<scalar> 
244288
(
1.62245e-06
1.62278e-06
1.62273e-06
1.62255e-06
1.62246e-06
1.62257e-06
1.62275e-06
1.62278e-06
1.62278e-06
1.62254e-06
1.62224e-06
1.62212e-06
1.62227e-06
1.62258e-06
1.62279e-06
1.62273e-06
1.62254e-06
1.62209e-06
1.6217e-06
1.62156e-06
1.62173e-06
1.62215e-06
1.62258e-06
1.62274e-06
1.62255e-06
1.62224e-06
1.6217e-06
1.62126e-06
1.62111e-06
1.6213e-06
1.62176e-06
1.6223e-06
1.62256e-06
1.62245e-06
1.62246e-06
1.62212e-06
1.62156e-06
1.62111e-06
1.62095e-06
1.62115e-06
1.62163e-06
1.62219e-06
1.62247e-06
1.62257e-06
1.62227e-06
1.62173e-06
1.6213e-06
1.62115e-06
1.62134e-06
1.6218e-06
1.62233e-06
1.62258e-06
1.62275e-06
1.62258e-06
1.62215e-06
1.62176e-06
1.62163e-06
1.6218e-06
1.62221e-06
1.62262e-06
1.62275e-06
1.62279e-06
1.62258e-06
1.6223e-06
1.62219e-06
1.62233e-06
1.62262e-06
1.62279e-06
1.62274e-06
1.62256e-06
1.62247e-06
1.62258e-06
1.62275e-06
1.59573e-06
1.59526e-06
1.59491e-06
1.59347e-06
1.59337e-06
1.59337e-06
1.5934e-06
1.59481e-06
1.59498e-06
1.59491e-06
1.59306e-06
1.59049e-06
1.59051e-06
1.59051e-06
1.59049e-06
1.59295e-06
1.59343e-06
1.59346e-06
1.59049e-06
1.59046e-06
1.5905e-06
1.5905e-06
1.59046e-06
1.59049e-06
1.59323e-06
1.59509e-06
1.59573e-06
1.59337e-06
1.59051e-06
1.59051e-06
1.59055e-06
1.59055e-06
1.5905e-06
1.59051e-06
1.5931e-06
1.59492e-06
1.59527e-06
1.59336e-06
1.59051e-06
1.5905e-06
1.59055e-06
1.59055e-06
1.5905e-06
1.59051e-06
1.59306e-06
1.59363e-06
1.5934e-06
1.59049e-06
1.59046e-06
1.5905e-06
1.5905e-06
1.59046e-06
1.59049e-06
1.59315e-06
1.59497e-06
1.59481e-06
1.59295e-06
1.5905e-06
1.59051e-06
1.59051e-06
1.5905e-06
1.59269e-06
1.59338e-06
1.59512e-06
1.59498e-06
1.59343e-06
1.59323e-06
1.5931e-06
1.59306e-06
1.59315e-06
1.59338e-06
1.59507e-06
1.59509e-06
1.59492e-06
1.59362e-06
1.59497e-06
1.59512e-06
1.57858e-06
1.57843e-06
1.57836e-06
1.5767e-06
1.5766e-06
1.57658e-06
1.57664e-06
1.5782e-06
1.57845e-06
1.57836e-06
1.5763e-06
1.57341e-06
1.5734e-06
1.5734e-06
1.57341e-06
1.5762e-06
1.5768e-06
1.5767e-06
1.57341e-06
1.57339e-06
1.57339e-06
1.57339e-06
1.57339e-06
1.57341e-06
1.57658e-06
1.57843e-06
1.57857e-06
1.5766e-06
1.5734e-06
1.57339e-06
1.5734e-06
1.5734e-06
1.57339e-06
1.5734e-06
1.57642e-06
1.57815e-06
1.57843e-06
1.57658e-06
1.5734e-06
1.57339e-06
1.5734e-06
1.5734e-06
1.57339e-06
1.5734e-06
1.57637e-06
1.57693e-06
1.57664e-06
1.57341e-06
1.57339e-06
1.57339e-06
1.57339e-06
1.57339e-06
1.57341e-06
1.57649e-06
1.57829e-06
1.5782e-06
1.5762e-06
1.57341e-06
1.5734e-06
1.5734e-06
1.5734e-06
1.57599e-06
1.57672e-06
1.57849e-06
1.57845e-06
1.5768e-06
1.57657e-06
1.57642e-06
1.57637e-06
1.57649e-06
1.57672e-06
1.57834e-06
1.57843e-06
1.57814e-06
1.57693e-06
1.57829e-06
1.57848e-06
1.56176e-06
1.56161e-06
1.56154e-06
1.55986e-06
1.55976e-06
1.55973e-06
1.55981e-06
1.56138e-06
1.56163e-06
1.56154e-06
1.55942e-06
1.5565e-06
1.5565e-06
1.5565e-06
1.5565e-06
1.55935e-06
1.55998e-06
1.55986e-06
1.5565e-06
1.55649e-06
1.55649e-06
1.55649e-06
1.5565e-06
1.5565e-06
1.55979e-06
1.56162e-06
1.56176e-06
1.55976e-06
1.5565e-06
1.55649e-06
1.55649e-06
1.55649e-06
1.55649e-06
1.5565e-06
1.55967e-06
1.56134e-06
1.56161e-06
1.55973e-06
1.5565e-06
1.55649e-06
1.55649e-06
1.55649e-06
1.55649e-06
1.5565e-06
1.55963e-06
1.56012e-06
1.55981e-06
1.5565e-06
1.55649e-06
1.55649e-06
1.55649e-06
1.55649e-06
1.5565e-06
1.55972e-06
1.56148e-06
1.56138e-06
1.55934e-06
1.5565e-06
1.5565e-06
1.5565e-06
1.5565e-06
1.5592e-06
1.55991e-06
1.56167e-06
1.56163e-06
1.55998e-06
1.55979e-06
1.55967e-06
1.55963e-06
1.55972e-06
1.55991e-06
1.5615e-06
1.56162e-06
1.56134e-06
1.56012e-06
1.56148e-06
1.56167e-06
1.5449e-06
1.54475e-06
1.54467e-06
1.54298e-06
1.54288e-06
1.54285e-06
1.54293e-06
1.54451e-06
1.54476e-06
1.54467e-06
1.54253e-06
1.53961e-06
1.53961e-06
1.53961e-06
1.53961e-06
1.54246e-06
1.54311e-06
1.54298e-06
1.53961e-06
1.53961e-06
1.53961e-06
1.53961e-06
1.53961e-06
1.53961e-06
1.54292e-06
1.54475e-06
1.5449e-06
1.54288e-06
1.53961e-06
1.53961e-06
1.53961e-06
1.53961e-06
1.53961e-06
1.53961e-06
1.54282e-06
1.54447e-06
1.54475e-06
1.54285e-06
1.53961e-06
1.53961e-06
1.53961e-06
1.53961e-06
1.53961e-06
1.53961e-06
1.54278e-06
1.54326e-06
1.54293e-06
1.53961e-06
1.53961e-06
1.53961e-06
1.53961e-06
1.53961e-06
1.53961e-06
1.54286e-06
1.54462e-06
1.54451e-06
1.54246e-06
1.53961e-06
1.53961e-06
1.53961e-06
1.53961e-06
1.54234e-06
1.54305e-06
1.54481e-06
1.54476e-06
1.54311e-06
1.54292e-06
1.54282e-06
1.54278e-06
1.54286e-06
1.54305e-06
1.54463e-06
1.54475e-06
1.54447e-06
1.54326e-06
1.54462e-06
1.54481e-06
1.52802e-06
1.52788e-06
1.52779e-06
1.5261e-06
1.526e-06
1.52597e-06
1.52605e-06
1.52764e-06
1.52788e-06
1.52779e-06
1.52565e-06
1.52273e-06
1.52273e-06
1.52273e-06
1.52273e-06
1.52558e-06
1.52623e-06
1.5261e-06
1.52273e-06
1.52273e-06
1.52273e-06
1.52273e-06
1.52273e-06
1.52273e-06
1.52604e-06
1.52788e-06
1.52802e-06
1.526e-06
1.52273e-06
1.52273e-06
1.52273e-06
1.52273e-06
1.52273e-06
1.52273e-06
1.52594e-06
1.5276e-06
1.52789e-06
1.52597e-06
1.52273e-06
1.52273e-06
1.52273e-06
1.52273e-06
1.52273e-06
1.52273e-06
1.5259e-06
1.52638e-06
1.52605e-06
1.52273e-06
1.52273e-06
1.52273e-06
1.52273e-06
1.52273e-06
1.52273e-06
1.52599e-06
1.52774e-06
1.52764e-06
1.52558e-06
1.52273e-06
1.52273e-06
1.52273e-06
1.52273e-06
1.52547e-06
1.52617e-06
1.52793e-06
1.52788e-06
1.52623e-06
1.52604e-06
1.52594e-06
1.5259e-06
1.52599e-06
1.52617e-06
1.52775e-06
1.52788e-06
1.5276e-06
1.52638e-06
1.52774e-06
1.52793e-06
1.51114e-06
1.511e-06
1.51091e-06
1.50922e-06
1.50912e-06
1.50909e-06
1.50917e-06
1.51076e-06
1.511e-06
1.51092e-06
1.50877e-06
1.50585e-06
1.50585e-06
1.50585e-06
1.50585e-06
1.5087e-06
1.50935e-06
1.50922e-06
1.50585e-06
1.50585e-06
1.50585e-06
1.50585e-06
1.50585e-06
1.50585e-06
1.50916e-06
1.511e-06
1.51115e-06
1.50912e-06
1.50585e-06
1.50585e-06
1.50585e-06
1.50585e-06
1.50585e-06
1.50585e-06
1.50906e-06
1.51072e-06
1.51101e-06
1.5091e-06
1.50585e-06
1.50585e-06
1.50585e-06
1.50585e-06
1.50585e-06
1.50585e-06
1.50903e-06
1.5095e-06
1.50917e-06
1.50585e-06
1.50585e-06
1.50585e-06
1.50585e-06
1.50585e-06
1.50585e-06
1.50911e-06
1.51086e-06
1.51076e-06
1.5087e-06
1.50585e-06
1.50585e-06
1.50585e-06
1.50585e-06
1.50859e-06
1.50929e-06
1.51105e-06
1.51101e-06
1.50935e-06
1.50917e-06
1.50907e-06
1.50903e-06
1.50911e-06
1.50929e-06
1.51087e-06
1.511e-06
1.51072e-06
1.5095e-06
1.51086e-06
1.51105e-06
1.49427e-06
1.49412e-06
1.49404e-06
1.49234e-06
1.49224e-06
1.49222e-06
1.4923e-06
1.49388e-06
1.49413e-06
1.49404e-06
1.49189e-06
1.48897e-06
1.48897e-06
1.48897e-06
1.48897e-06
1.49182e-06
1.49247e-06
1.49234e-06
1.48897e-06
1.48897e-06
1.48897e-06
1.48897e-06
1.48897e-06
1.48897e-06
1.49229e-06
1.49412e-06
1.49427e-06
1.49224e-06
1.48897e-06
1.48897e-06
1.48897e-06
1.48897e-06
1.48897e-06
1.48897e-06
1.49219e-06
1.49384e-06
1.49412e-06
1.49221e-06
1.48897e-06
1.48897e-06
1.48897e-06
1.48897e-06
1.48897e-06
1.48897e-06
1.49215e-06
1.49263e-06
1.4923e-06
1.48897e-06
1.48897e-06
1.48897e-06
1.48897e-06
1.48897e-06
1.48897e-06
1.49223e-06
1.49398e-06
1.49388e-06
1.49182e-06
1.48897e-06
1.48897e-06
1.48897e-06
1.48897e-06
1.49171e-06
1.49241e-06
1.49417e-06
1.49413e-06
1.49247e-06
1.49229e-06
1.49219e-06
1.49215e-06
1.49223e-06
1.49241e-06
1.49399e-06
1.49412e-06
1.49384e-06
1.49263e-06
1.49398e-06
1.49417e-06
1.47739e-06
1.47724e-06
1.47716e-06
1.47547e-06
1.47536e-06
1.47534e-06
1.47542e-06
1.477e-06
1.47725e-06
1.47716e-06
1.47501e-06
1.47209e-06
1.47209e-06
1.47209e-06
1.47209e-06
1.47494e-06
1.47559e-06
1.47547e-06
1.47209e-06
1.47209e-06
1.47209e-06
1.47209e-06
1.47209e-06
1.47209e-06
1.47541e-06
1.47724e-06
1.47739e-06
1.47537e-06
1.47209e-06
1.47209e-06
1.47209e-06
1.47209e-06
1.47209e-06
1.47209e-06
1.47531e-06
1.47696e-06
1.47723e-06
1.47534e-06
1.47209e-06
1.47209e-06
1.47209e-06
1.47209e-06
1.47209e-06
1.47209e-06
1.47527e-06
1.47575e-06
1.47542e-06
1.47209e-06
1.47209e-06
1.47209e-06
1.47209e-06
1.47209e-06
1.47209e-06
1.47535e-06
1.4771e-06
1.477e-06
1.47494e-06
1.47209e-06
1.47209e-06
1.47209e-06
1.47209e-06
1.47483e-06
1.47553e-06
1.47729e-06
1.47725e-06
1.47559e-06
1.47541e-06
1.47531e-06
1.47527e-06
1.47535e-06
1.47553e-06
1.47711e-06
1.47724e-06
1.47696e-06
1.47575e-06
1.4771e-06
1.47729e-06
1.46051e-06
1.46036e-06
1.46028e-06
1.45859e-06
1.45848e-06
1.45846e-06
1.45854e-06
1.46012e-06
1.46037e-06
1.46028e-06
1.45813e-06
1.45521e-06
1.45521e-06
1.45521e-06
1.45521e-06
1.45806e-06
1.45871e-06
1.45859e-06
1.45521e-06
1.45521e-06
1.45521e-06
1.45521e-06
1.45521e-06
1.45521e-06
1.45853e-06
1.46036e-06
1.4605e-06
1.45849e-06
1.45521e-06
1.45521e-06
1.45521e-06
1.45521e-06
1.45521e-06
1.45521e-06
1.45843e-06
1.46008e-06
1.46036e-06
1.45846e-06
1.45521e-06
1.45521e-06
1.45521e-06
1.45521e-06
1.45521e-06
1.45521e-06
1.45839e-06
1.45887e-06
1.45853e-06
1.45521e-06
1.45521e-06
1.45521e-06
1.45521e-06
1.45521e-06
1.45521e-06
1.45847e-06
1.46022e-06
1.46012e-06
1.45806e-06
1.45521e-06
1.45521e-06
1.45521e-06
1.45521e-06
1.45795e-06
1.45865e-06
1.46041e-06
1.46037e-06
1.45871e-06
1.45853e-06
1.45843e-06
1.45839e-06
1.45847e-06
1.45865e-06
1.46023e-06
1.46036e-06
1.46008e-06
1.45887e-06
1.46022e-06
1.46041e-06
1.44363e-06
1.44348e-06
1.4434e-06
1.44171e-06
1.4416e-06
1.44158e-06
1.44166e-06
1.44324e-06
1.44349e-06
1.4434e-06
1.44125e-06
1.43833e-06
1.43833e-06
1.43833e-06
1.43833e-06
1.44118e-06
1.44183e-06
1.44171e-06
1.43833e-06
1.43833e-06
1.43833e-06
1.43833e-06
1.43833e-06
1.43833e-06
1.44165e-06
1.44348e-06
1.44363e-06
1.44161e-06
1.43833e-06
1.43833e-06
1.43833e-06
1.43833e-06
1.43833e-06
1.43833e-06
1.44155e-06
1.4432e-06
1.44348e-06
1.44158e-06
1.43833e-06
1.43833e-06
1.43833e-06
1.43833e-06
1.43833e-06
1.43833e-06
1.44151e-06
1.44199e-06
1.44165e-06
1.43833e-06
1.43833e-06
1.43833e-06
1.43833e-06
1.43833e-06
1.43833e-06
1.44159e-06
1.44334e-06
1.44324e-06
1.44118e-06
1.43833e-06
1.43833e-06
1.43833e-06
1.43833e-06
1.44107e-06
1.44177e-06
1.44353e-06
1.44349e-06
1.44183e-06
1.44165e-06
1.44155e-06
1.44151e-06
1.44159e-06
1.44177e-06
1.44335e-06
1.44348e-06
1.4432e-06
1.44199e-06
1.44334e-06
1.44353e-06
1.42675e-06
1.4266e-06
1.42652e-06
1.42483e-06
1.42472e-06
1.4247e-06
1.42478e-06
1.42636e-06
1.42661e-06
1.42652e-06
1.42437e-06
1.42145e-06
1.42145e-06
1.42145e-06
1.42145e-06
1.4243e-06
1.42495e-06
1.42483e-06
1.42145e-06
1.42145e-06
1.42145e-06
1.42145e-06
1.42145e-06
1.42145e-06
1.42477e-06
1.4266e-06
1.42675e-06
1.42472e-06
1.42145e-06
1.42145e-06
1.42145e-06
1.42145e-06
1.42145e-06
1.42145e-06
1.42467e-06
1.42632e-06
1.4266e-06
1.4247e-06
1.42145e-06
1.42145e-06
1.42145e-06
1.42145e-06
1.42145e-06
1.42145e-06
1.42463e-06
1.42511e-06
1.42478e-06
1.42145e-06
1.42145e-06
1.42145e-06
1.42145e-06
1.42145e-06
1.42145e-06
1.42471e-06
1.42646e-06
1.42636e-06
1.4243e-06
1.42145e-06
1.42145e-06
1.42145e-06
1.42145e-06
1.42419e-06
1.42489e-06
1.42665e-06
1.42661e-06
1.42495e-06
1.42477e-06
1.42467e-06
1.42463e-06
1.42471e-06
1.42489e-06
1.42647e-06
1.4266e-06
1.42632e-06
1.42511e-06
1.42646e-06
1.42665e-06
1.40987e-06
1.40972e-06
1.40964e-06
1.40794e-06
1.40784e-06
1.40782e-06
1.4079e-06
1.40948e-06
1.40973e-06
1.40964e-06
1.40749e-06
1.40457e-06
1.40457e-06
1.40457e-06
1.40457e-06
1.40742e-06
1.40807e-06
1.40795e-06
1.40457e-06
1.40457e-06
1.40457e-06
1.40457e-06
1.40457e-06
1.40457e-06
1.40789e-06
1.40972e-06
1.40987e-06
1.40784e-06
1.40457e-06
1.40457e-06
1.40457e-06
1.40457e-06
1.40457e-06
1.40457e-06
1.40779e-06
1.40944e-06
1.40972e-06
1.40781e-06
1.40457e-06
1.40457e-06
1.40457e-06
1.40457e-06
1.40457e-06
1.40457e-06
1.40775e-06
1.40823e-06
1.4079e-06
1.40457e-06
1.40457e-06
1.40457e-06
1.40457e-06
1.40457e-06
1.40457e-06
1.40783e-06
1.40958e-06
1.40948e-06
1.40742e-06
1.40457e-06
1.40457e-06
1.40457e-06
1.40457e-06
1.40731e-06
1.40801e-06
1.40977e-06
1.40973e-06
1.40807e-06
1.40789e-06
1.40779e-06
1.40775e-06
1.40783e-06
1.40801e-06
1.40959e-06
1.40972e-06
1.40944e-06
1.40823e-06
1.40958e-06
1.40977e-06
1.39299e-06
1.39284e-06
1.39276e-06
1.39106e-06
1.39096e-06
1.39094e-06
1.39102e-06
1.3926e-06
1.39285e-06
1.39276e-06
1.39061e-06
1.38769e-06
1.38769e-06
1.38769e-06
1.38769e-06
1.39054e-06
1.39119e-06
1.39107e-06
1.38769e-06
1.38769e-06
1.38769e-06
1.38769e-06
1.38769e-06
1.38769e-06
1.39101e-06
1.39284e-06
1.39299e-06
1.39096e-06
1.38769e-06
1.38769e-06
1.38769e-06
1.38769e-06
1.38769e-06
1.38769e-06
1.39091e-06
1.39256e-06
1.39285e-06
1.39094e-06
1.38769e-06
1.38769e-06
1.38769e-06
1.38769e-06
1.38769e-06
1.38769e-06
1.39087e-06
1.39135e-06
1.39102e-06
1.38769e-06
1.38769e-06
1.38769e-06
1.38769e-06
1.38769e-06
1.38769e-06
1.39095e-06
1.3927e-06
1.3926e-06
1.39054e-06
1.38769e-06
1.38769e-06
1.38769e-06
1.38769e-06
1.39043e-06
1.39113e-06
1.39289e-06
1.39285e-06
1.39119e-06
1.39101e-06
1.39091e-06
1.39087e-06
1.39095e-06
1.39113e-06
1.39271e-06
1.39284e-06
1.39256e-06
1.39135e-06
1.3927e-06
1.39289e-06
1.37611e-06
1.37596e-06
1.37588e-06
1.37418e-06
1.37408e-06
1.37405e-06
1.37414e-06
1.37572e-06
1.37597e-06
1.37588e-06
1.37373e-06
1.37081e-06
1.37081e-06
1.37081e-06
1.37081e-06
1.37366e-06
1.37431e-06
1.37419e-06
1.37081e-06
1.37081e-06
1.37081e-06
1.37081e-06
1.37081e-06
1.37081e-06
1.37413e-06
1.37596e-06
1.37611e-06
1.37408e-06
1.37081e-06
1.37081e-06
1.37081e-06
1.37081e-06
1.37081e-06
1.37081e-06
1.37403e-06
1.37568e-06
1.37597e-06
1.37406e-06
1.37081e-06
1.37081e-06
1.37081e-06
1.37081e-06
1.37081e-06
1.37081e-06
1.37399e-06
1.37447e-06
1.37414e-06
1.37081e-06
1.37081e-06
1.37081e-06
1.37081e-06
1.37081e-06
1.37081e-06
1.37407e-06
1.37582e-06
1.37572e-06
1.37366e-06
1.37081e-06
1.37081e-06
1.37081e-06
1.37081e-06
1.37355e-06
1.37425e-06
1.37601e-06
1.37597e-06
1.37431e-06
1.37413e-06
1.37403e-06
1.37399e-06
1.37407e-06
1.37425e-06
1.37583e-06
1.37596e-06
1.37568e-06
1.37447e-06
1.37582e-06
1.37601e-06
1.35923e-06
1.35908e-06
1.359e-06
1.3573e-06
1.3572e-06
1.35717e-06
1.35726e-06
1.35884e-06
1.35909e-06
1.359e-06
1.35685e-06
1.35393e-06
1.35393e-06
1.35393e-06
1.35393e-06
1.35678e-06
1.35743e-06
1.35731e-06
1.35393e-06
1.35393e-06
1.35393e-06
1.35393e-06
1.35393e-06
1.35393e-06
1.35725e-06
1.35908e-06
1.35923e-06
1.3572e-06
1.35393e-06
1.35393e-06
1.35393e-06
1.35393e-06
1.35393e-06
1.35393e-06
1.35715e-06
1.3588e-06
1.35908e-06
1.35717e-06
1.35393e-06
1.35393e-06
1.35393e-06
1.35393e-06
1.35393e-06
1.35393e-06
1.35711e-06
1.35759e-06
1.35726e-06
1.35393e-06
1.35393e-06
1.35393e-06
1.35393e-06
1.35393e-06
1.35393e-06
1.35719e-06
1.35894e-06
1.35884e-06
1.35678e-06
1.35393e-06
1.35393e-06
1.35393e-06
1.35393e-06
1.35667e-06
1.35737e-06
1.35913e-06
1.35909e-06
1.35743e-06
1.35725e-06
1.35715e-06
1.35711e-06
1.35719e-06
1.35737e-06
1.35895e-06
1.35908e-06
1.3588e-06
1.35759e-06
1.35894e-06
1.35913e-06
1.34235e-06
1.3422e-06
1.34212e-06
1.34042e-06
1.34032e-06
1.34029e-06
1.34038e-06
1.34196e-06
1.34221e-06
1.34212e-06
1.33997e-06
1.33705e-06
1.33705e-06
1.33705e-06
1.33705e-06
1.3399e-06
1.34055e-06
1.34042e-06
1.33705e-06
1.33705e-06
1.33705e-06
1.33705e-06
1.33705e-06
1.33705e-06
1.34037e-06
1.3422e-06
1.34234e-06
1.34032e-06
1.33705e-06
1.33705e-06
1.33705e-06
1.33705e-06
1.33705e-06
1.33705e-06
1.34027e-06
1.34192e-06
1.3422e-06
1.34029e-06
1.33705e-06
1.33705e-06
1.33705e-06
1.33705e-06
1.33705e-06
1.33705e-06
1.34023e-06
1.34071e-06
1.34038e-06
1.33705e-06
1.33705e-06
1.33705e-06
1.33705e-06
1.33705e-06
1.33705e-06
1.34031e-06
1.34206e-06
1.34196e-06
1.3399e-06
1.33705e-06
1.33705e-06
1.33705e-06
1.33705e-06
1.33979e-06
1.34049e-06
1.34225e-06
1.34221e-06
1.34055e-06
1.34037e-06
1.34027e-06
1.34023e-06
1.34031e-06
1.34049e-06
1.34207e-06
1.3422e-06
1.34192e-06
1.34071e-06
1.34206e-06
1.34225e-06
1.32547e-06
1.32532e-06
1.32523e-06
1.32354e-06
1.32344e-06
1.32341e-06
1.32349e-06
1.32508e-06
1.32532e-06
1.32524e-06
1.32309e-06
1.32017e-06
1.32017e-06
1.32017e-06
1.32017e-06
1.32302e-06
1.32367e-06
1.32354e-06
1.32017e-06
1.32017e-06
1.32017e-06
1.32017e-06
1.32017e-06
1.32017e-06
1.32348e-06
1.32532e-06
1.32546e-06
1.32344e-06
1.32017e-06
1.32017e-06
1.32017e-06
1.32017e-06
1.32017e-06
1.32017e-06
1.32339e-06
1.32504e-06
1.32532e-06
1.32341e-06
1.32017e-06
1.32017e-06
1.32017e-06
1.32017e-06
1.32017e-06
1.32017e-06
1.32335e-06
1.32383e-06
1.32349e-06
1.32017e-06
1.32017e-06
1.32017e-06
1.32017e-06
1.32017e-06
1.32017e-06
1.32343e-06
1.32518e-06
1.32508e-06
1.32302e-06
1.32017e-06
1.32017e-06
1.32017e-06
1.32017e-06
1.32291e-06
1.32361e-06
1.32537e-06
1.32533e-06
1.32367e-06
1.32349e-06
1.32339e-06
1.32335e-06
1.32343e-06
1.32361e-06
1.32519e-06
1.32532e-06
1.32504e-06
1.32382e-06
1.32518e-06
1.32537e-06
1.30859e-06
1.30844e-06
1.30836e-06
1.30666e-06
1.30656e-06
1.30653e-06
1.30662e-06
1.3082e-06
1.30845e-06
1.30836e-06
1.30621e-06
1.30329e-06
1.30329e-06
1.30329e-06
1.30329e-06
1.30614e-06
1.30679e-06
1.30667e-06
1.30329e-06
1.30329e-06
1.30329e-06
1.30329e-06
1.30329e-06
1.30329e-06
1.30661e-06
1.30844e-06
1.30859e-06
1.30656e-06
1.30329e-06
1.30329e-06
1.30329e-06
1.30329e-06
1.30329e-06
1.30329e-06
1.30651e-06
1.30816e-06
1.30844e-06
1.30653e-06
1.30329e-06
1.30329e-06
1.30329e-06
1.30329e-06
1.30329e-06
1.30329e-06
1.30647e-06
1.30695e-06
1.30661e-06
1.30329e-06
1.30329e-06
1.30329e-06
1.30329e-06
1.30329e-06
1.30329e-06
1.30655e-06
1.3083e-06
1.3082e-06
1.30614e-06
1.30329e-06
1.30329e-06
1.30329e-06
1.30329e-06
1.30603e-06
1.30673e-06
1.30849e-06
1.30845e-06
1.30679e-06
1.30661e-06
1.30651e-06
1.30647e-06
1.30655e-06
1.30673e-06
1.30831e-06
1.30844e-06
1.30816e-06
1.30694e-06
1.3083e-06
1.30849e-06
1.29171e-06
1.29156e-06
1.29148e-06
1.28979e-06
1.28968e-06
1.28966e-06
1.28974e-06
1.29132e-06
1.29157e-06
1.29148e-06
1.28933e-06
1.28641e-06
1.28641e-06
1.28641e-06
1.28641e-06
1.28926e-06
1.28991e-06
1.28979e-06
1.28641e-06
1.28641e-06
1.28641e-06
1.28641e-06
1.28641e-06
1.28641e-06
1.28973e-06
1.29156e-06
1.29171e-06
1.28969e-06
1.28641e-06
1.28641e-06
1.28641e-06
1.28641e-06
1.28641e-06
1.28641e-06
1.28963e-06
1.29128e-06
1.29156e-06
1.28966e-06
1.28641e-06
1.28641e-06
1.28641e-06
1.28641e-06
1.28641e-06
1.28641e-06
1.28959e-06
1.29007e-06
1.28974e-06
1.28641e-06
1.28641e-06
1.28641e-06
1.28641e-06
1.28641e-06
1.28641e-06
1.28967e-06
1.29142e-06
1.29132e-06
1.28926e-06
1.28641e-06
1.28641e-06
1.28641e-06
1.28641e-06
1.28915e-06
1.28985e-06
1.29161e-06
1.29157e-06
1.28991e-06
1.28973e-06
1.28963e-06
1.28959e-06
1.28967e-06
1.28985e-06
1.29143e-06
1.29156e-06
1.29128e-06
1.29007e-06
1.29143e-06
1.29161e-06
1.27483e-06
1.27468e-06
1.2746e-06
1.27291e-06
1.27281e-06
1.27278e-06
1.27286e-06
1.27444e-06
1.27469e-06
1.2746e-06
1.27245e-06
1.26953e-06
1.26953e-06
1.26953e-06
1.26953e-06
1.27238e-06
1.27304e-06
1.27291e-06
1.26953e-06
1.26953e-06
1.26953e-06
1.26953e-06
1.26953e-06
1.26953e-06
1.27285e-06
1.27468e-06
1.27483e-06
1.27281e-06
1.26953e-06
1.26953e-06
1.26953e-06
1.26953e-06
1.26953e-06
1.26953e-06
1.27275e-06
1.2744e-06
1.27468e-06
1.27278e-06
1.26953e-06
1.26953e-06
1.26953e-06
1.26953e-06
1.26953e-06
1.26953e-06
1.27271e-06
1.27319e-06
1.27286e-06
1.26953e-06
1.26953e-06
1.26953e-06
1.26953e-06
1.26953e-06
1.26953e-06
1.27279e-06
1.27454e-06
1.27444e-06
1.27238e-06
1.26953e-06
1.26953e-06
1.26953e-06
1.26953e-06
1.27227e-06
1.27297e-06
1.27473e-06
1.27469e-06
1.27304e-06
1.27285e-06
1.27275e-06
1.27271e-06
1.27279e-06
1.27297e-06
1.27455e-06
1.27468e-06
1.2744e-06
1.27319e-06
1.27454e-06
1.27473e-06
1.25795e-06
1.2578e-06
1.25772e-06
1.25603e-06
1.25593e-06
1.2559e-06
1.25598e-06
1.25756e-06
1.25781e-06
1.25772e-06
1.25557e-06
1.25265e-06
1.25265e-06
1.25265e-06
1.25265e-06
1.2555e-06
1.25616e-06
1.25603e-06
1.25265e-06
1.25265e-06
1.25265e-06
1.25265e-06
1.25265e-06
1.25265e-06
1.25597e-06
1.2578e-06
1.25795e-06
1.25593e-06
1.25265e-06
1.25265e-06
1.25265e-06
1.25265e-06
1.25265e-06
1.25265e-06
1.25587e-06
1.25752e-06
1.2578e-06
1.2559e-06
1.25265e-06
1.25265e-06
1.25265e-06
1.25265e-06
1.25265e-06
1.25265e-06
1.25583e-06
1.25631e-06
1.25598e-06
1.25265e-06
1.25265e-06
1.25265e-06
1.25265e-06
1.25265e-06
1.25265e-06
1.25591e-06
1.25767e-06
1.25756e-06
1.2555e-06
1.25265e-06
1.25265e-06
1.25265e-06
1.25265e-06
1.25539e-06
1.25609e-06
1.25785e-06
1.25781e-06
1.25616e-06
1.25597e-06
1.25587e-06
1.25583e-06
1.25591e-06
1.25609e-06
1.25767e-06
1.2578e-06
1.25752e-06
1.2563e-06
1.25766e-06
1.25785e-06
1.24107e-06
1.24092e-06
1.24084e-06
1.23915e-06
1.23905e-06
1.23901e-06
1.2391e-06
1.24068e-06
1.24093e-06
1.24084e-06
1.23869e-06
1.23577e-06
1.23577e-06
1.23577e-06
1.23577e-06
1.23862e-06
1.23927e-06
1.23915e-06
1.23577e-06
1.23577e-06
1.23577e-06
1.23577e-06
1.23577e-06
1.23577e-06
1.23909e-06
1.24092e-06
1.24107e-06
1.23904e-06
1.23577e-06
1.23577e-06
1.23577e-06
1.23577e-06
1.23577e-06
1.23577e-06
1.23899e-06
1.24064e-06
1.24092e-06
1.23902e-06
1.23577e-06
1.23577e-06
1.23577e-06
1.23577e-06
1.23577e-06
1.23577e-06
1.23895e-06
1.23943e-06
1.2391e-06
1.23577e-06
1.23577e-06
1.23577e-06
1.23577e-06
1.23577e-06
1.23577e-06
1.23903e-06
1.24078e-06
1.24068e-06
1.23862e-06
1.23577e-06
1.23577e-06
1.23577e-06
1.23577e-06
1.23851e-06
1.23921e-06
1.24097e-06
1.24093e-06
1.23927e-06
1.23909e-06
1.23899e-06
1.23895e-06
1.23903e-06
1.23921e-06
1.24079e-06
1.24092e-06
1.24064e-06
1.23942e-06
1.24078e-06
1.24097e-06
1.22419e-06
1.22404e-06
1.22396e-06
1.22226e-06
1.22216e-06
1.22213e-06
1.22222e-06
1.2238e-06
1.22405e-06
1.22396e-06
1.22181e-06
1.21889e-06
1.21889e-06
1.21889e-06
1.21889e-06
1.22174e-06
1.22239e-06
1.22227e-06
1.21889e-06
1.21889e-06
1.21889e-06
1.21889e-06
1.21889e-06
1.21889e-06
1.22221e-06
1.22404e-06
1.22419e-06
1.22216e-06
1.21889e-06
1.21889e-06
1.21889e-06
1.21889e-06
1.21889e-06
1.21889e-06
1.22211e-06
1.22376e-06
1.22404e-06
1.22213e-06
1.21889e-06
1.21889e-06
1.21889e-06
1.21889e-06
1.21889e-06
1.21889e-06
1.22207e-06
1.22255e-06
1.22222e-06
1.21889e-06
1.21889e-06
1.21889e-06
1.21889e-06
1.21889e-06
1.21889e-06
1.22215e-06
1.2239e-06
1.2238e-06
1.22174e-06
1.21889e-06
1.21889e-06
1.21889e-06
1.21889e-06
1.22163e-06
1.22233e-06
1.22409e-06
1.22405e-06
1.22239e-06
1.22221e-06
1.22211e-06
1.22207e-06
1.22215e-06
1.22233e-06
1.22391e-06
1.22404e-06
1.22376e-06
1.22255e-06
1.2239e-06
1.22409e-06
1.2073e-06
1.20716e-06
1.20708e-06
1.20538e-06
1.20528e-06
1.20525e-06
1.20534e-06
1.20692e-06
1.20717e-06
1.20708e-06
1.20493e-06
1.20201e-06
1.20201e-06
1.20201e-06
1.20201e-06
1.20486e-06
1.20551e-06
1.20538e-06
1.20201e-06
1.20201e-06
1.20201e-06
1.20201e-06
1.20201e-06
1.20201e-06
1.20533e-06
1.20716e-06
1.2073e-06
1.20528e-06
1.20201e-06
1.20201e-06
1.20201e-06
1.20201e-06
1.20201e-06
1.20201e-06
1.20523e-06
1.20688e-06
1.20716e-06
1.20525e-06
1.20201e-06
1.20201e-06
1.20201e-06
1.20201e-06
1.20201e-06
1.20201e-06
1.20519e-06
1.20567e-06
1.20534e-06
1.20201e-06
1.20201e-06
1.20201e-06
1.20201e-06
1.20201e-06
1.20201e-06
1.20527e-06
1.20702e-06
1.20692e-06
1.20486e-06
1.20201e-06
1.20201e-06
1.20201e-06
1.20201e-06
1.20475e-06
1.20545e-06
1.20721e-06
1.20717e-06
1.20551e-06
1.20532e-06
1.20523e-06
1.20519e-06
1.20527e-06
1.20545e-06
1.20703e-06
1.20716e-06
1.20688e-06
1.20567e-06
1.20702e-06
1.20721e-06
1.19042e-06
1.19028e-06
1.19019e-06
1.1885e-06
1.1884e-06
1.18837e-06
1.18846e-06
1.19004e-06
1.19029e-06
1.19019e-06
1.18805e-06
1.18513e-06
1.18513e-06
1.18513e-06
1.18513e-06
1.18798e-06
1.18863e-06
1.1885e-06
1.18513e-06
1.18513e-06
1.18513e-06
1.18513e-06
1.18513e-06
1.18513e-06
1.18844e-06
1.19028e-06
1.19042e-06
1.1884e-06
1.18513e-06
1.18513e-06
1.18513e-06
1.18513e-06
1.18513e-06
1.18513e-06
1.18835e-06
1.19e-06
1.19028e-06
1.18837e-06
1.18513e-06
1.18513e-06
1.18513e-06
1.18513e-06
1.18513e-06
1.18513e-06
1.18831e-06
1.18879e-06
1.18845e-06
1.18513e-06
1.18513e-06
1.18513e-06
1.18513e-06
1.18513e-06
1.18513e-06
1.18839e-06
1.19014e-06
1.19004e-06
1.18798e-06
1.18513e-06
1.18513e-06
1.18513e-06
1.18513e-06
1.18787e-06
1.18857e-06
1.19033e-06
1.19029e-06
1.18863e-06
1.18845e-06
1.18835e-06
1.18831e-06
1.18839e-06
1.18857e-06
1.19015e-06
1.19028e-06
1.19e-06
1.18879e-06
1.19014e-06
1.19033e-06
1.17354e-06
1.1734e-06
1.17332e-06
1.17162e-06
1.17152e-06
1.17149e-06
1.17158e-06
1.17316e-06
1.17341e-06
1.17332e-06
1.17117e-06
1.16825e-06
1.16825e-06
1.16825e-06
1.16825e-06
1.1711e-06
1.17175e-06
1.17162e-06
1.16825e-06
1.16825e-06
1.16825e-06
1.16825e-06
1.16825e-06
1.16825e-06
1.17157e-06
1.1734e-06
1.17355e-06
1.17152e-06
1.16825e-06
1.16825e-06
1.16825e-06
1.16825e-06
1.16825e-06
1.16825e-06
1.17147e-06
1.17312e-06
1.1734e-06
1.17149e-06
1.16825e-06
1.16825e-06
1.16825e-06
1.16825e-06
1.16825e-06
1.16825e-06
1.17143e-06
1.17191e-06
1.17157e-06
1.16825e-06
1.16825e-06
1.16825e-06
1.16825e-06
1.16825e-06
1.16825e-06
1.17151e-06
1.17326e-06
1.17316e-06
1.1711e-06
1.16825e-06
1.16825e-06
1.16825e-06
1.16825e-06
1.17099e-06
1.17169e-06
1.17345e-06
1.17341e-06
1.17175e-06
1.17157e-06
1.17147e-06
1.17143e-06
1.17151e-06
1.17169e-06
1.17327e-06
1.1734e-06
1.17312e-06
1.17191e-06
1.17326e-06
1.17345e-06
1.15667e-06
1.15652e-06
1.15644e-06
1.15474e-06
1.15464e-06
1.15461e-06
1.1547e-06
1.15628e-06
1.15653e-06
1.15644e-06
1.15429e-06
1.15137e-06
1.15137e-06
1.15137e-06
1.15137e-06
1.15422e-06
1.15487e-06
1.15475e-06
1.15137e-06
1.15137e-06
1.15137e-06
1.15137e-06
1.15137e-06
1.15137e-06
1.15469e-06
1.15652e-06
1.15667e-06
1.15465e-06
1.15137e-06
1.15137e-06
1.15137e-06
1.15137e-06
1.15137e-06
1.15137e-06
1.15459e-06
1.15624e-06
1.15652e-06
1.15462e-06
1.15137e-06
1.15137e-06
1.15137e-06
1.15137e-06
1.15137e-06
1.15137e-06
1.15455e-06
1.15503e-06
1.15469e-06
1.15137e-06
1.15137e-06
1.15137e-06
1.15137e-06
1.15137e-06
1.15137e-06
1.15463e-06
1.15638e-06
1.15628e-06
1.15422e-06
1.15137e-06
1.15137e-06
1.15137e-06
1.15137e-06
1.15411e-06
1.15481e-06
1.15657e-06
1.15653e-06
1.15487e-06
1.15469e-06
1.15459e-06
1.15455e-06
1.15463e-06
1.15481e-06
1.15639e-06
1.15652e-06
1.15624e-06
1.15503e-06
1.15638e-06
1.15657e-06
1.13979e-06
1.13964e-06
1.13956e-06
1.13786e-06
1.13776e-06
1.13773e-06
1.13782e-06
1.1394e-06
1.13965e-06
1.13956e-06
1.13741e-06
1.13449e-06
1.13449e-06
1.13449e-06
1.13449e-06
1.13734e-06
1.13799e-06
1.13787e-06
1.13449e-06
1.13449e-06
1.13449e-06
1.13449e-06
1.13449e-06
1.13449e-06
1.13781e-06
1.13964e-06
1.13978e-06
1.13777e-06
1.13449e-06
1.13449e-06
1.13449e-06
1.13449e-06
1.13449e-06
1.13449e-06
1.13771e-06
1.13936e-06
1.13964e-06
1.13774e-06
1.13449e-06
1.13449e-06
1.13449e-06
1.13449e-06
1.13449e-06
1.13449e-06
1.13767e-06
1.13815e-06
1.13781e-06
1.13449e-06
1.13449e-06
1.13449e-06
1.13449e-06
1.13449e-06
1.13449e-06
1.13775e-06
1.1395e-06
1.1394e-06
1.13734e-06
1.13449e-06
1.13449e-06
1.13449e-06
1.13449e-06
1.13723e-06
1.13793e-06
1.13969e-06
1.13965e-06
1.13799e-06
1.13781e-06
1.13771e-06
1.13767e-06
1.13775e-06
1.13793e-06
1.13951e-06
1.13964e-06
1.13936e-06
1.13815e-06
1.1395e-06
1.13969e-06
1.12291e-06
1.12276e-06
1.12268e-06
1.12099e-06
1.12089e-06
1.12086e-06
1.12094e-06
1.12252e-06
1.12277e-06
1.12268e-06
1.12053e-06
1.11761e-06
1.11761e-06
1.11761e-06
1.11761e-06
1.12046e-06
1.12112e-06
1.12099e-06
1.11761e-06
1.11761e-06
1.11761e-06
1.11761e-06
1.11761e-06
1.11761e-06
1.12093e-06
1.12276e-06
1.1229e-06
1.12089e-06
1.11761e-06
1.11761e-06
1.11761e-06
1.11761e-06
1.11761e-06
1.11761e-06
1.12083e-06
1.12248e-06
1.12276e-06
1.12086e-06
1.11761e-06
1.11761e-06
1.11761e-06
1.11761e-06
1.11761e-06
1.11761e-06
1.12079e-06
1.12127e-06
1.12094e-06
1.11761e-06
1.11761e-06
1.11761e-06
1.11761e-06
1.11761e-06
1.11761e-06
1.12087e-06
1.12262e-06
1.12252e-06
1.12046e-06
1.11761e-06
1.11761e-06
1.11761e-06
1.11761e-06
1.12035e-06
1.12105e-06
1.12281e-06
1.12277e-06
1.12111e-06
1.12093e-06
1.12083e-06
1.12079e-06
1.12087e-06
1.12105e-06
1.12263e-06
1.12276e-06
1.12248e-06
1.12127e-06
1.12262e-06
1.12281e-06
1.10603e-06
1.10588e-06
1.1058e-06
1.10411e-06
1.10401e-06
1.10398e-06
1.10406e-06
1.10564e-06
1.10589e-06
1.1058e-06
1.10365e-06
1.10073e-06
1.10073e-06
1.10073e-06
1.10073e-06
1.10358e-06
1.10424e-06
1.10411e-06
1.10073e-06
1.10073e-06
1.10073e-06
1.10073e-06
1.10073e-06
1.10073e-06
1.10405e-06
1.10588e-06
1.10603e-06
1.10401e-06
1.10073e-06
1.10073e-06
1.10073e-06
1.10073e-06
1.10073e-06
1.10073e-06
1.10395e-06
1.1056e-06
1.10588e-06
1.10398e-06
1.10073e-06
1.10073e-06
1.10073e-06
1.10073e-06
1.10073e-06
1.10073e-06
1.10391e-06
1.10439e-06
1.10406e-06
1.10073e-06
1.10073e-06
1.10073e-06
1.10073e-06
1.10073e-06
1.10073e-06
1.10399e-06
1.10574e-06
1.10564e-06
1.10358e-06
1.10073e-06
1.10073e-06
1.10073e-06
1.10073e-06
1.10347e-06
1.10417e-06
1.10593e-06
1.10589e-06
1.10423e-06
1.10405e-06
1.10395e-06
1.10391e-06
1.10399e-06
1.10417e-06
1.10575e-06
1.10588e-06
1.1056e-06
1.10439e-06
1.10575e-06
1.10593e-06
1.08915e-06
1.089e-06
1.08892e-06
1.08723e-06
1.08713e-06
1.0871e-06
1.08718e-06
1.08876e-06
1.08901e-06
1.08892e-06
1.08677e-06
1.08385e-06
1.08385e-06
1.08385e-06
1.08385e-06
1.0867e-06
1.08736e-06
1.08723e-06
1.08385e-06
1.08385e-06
1.08385e-06
1.08385e-06
1.08385e-06
1.08385e-06
1.08717e-06
1.089e-06
1.08915e-06
1.08713e-06
1.08385e-06
1.08385e-06
1.08385e-06
1.08385e-06
1.08385e-06
1.08385e-06
1.08707e-06
1.08872e-06
1.089e-06
1.0871e-06
1.08385e-06
1.08385e-06
1.08385e-06
1.08385e-06
1.08385e-06
1.08385e-06
1.08703e-06
1.08751e-06
1.08718e-06
1.08385e-06
1.08385e-06
1.08385e-06
1.08385e-06
1.08385e-06
1.08385e-06
1.08711e-06
1.08886e-06
1.08876e-06
1.0867e-06
1.08385e-06
1.08385e-06
1.08385e-06
1.08385e-06