/*--------------------------------*- C++ -*----------------------------------*\
| =========                 |                                                 |
| \\      /  F ield         | OpenFOAM: The Open Source CFD Toolbox           |
|  \\    /   O peration     | Version:  v2012                                 |
|   \\  /    A nd           | Website:  www.openfoam.com                      |
|    \\/     M anipulation  |                                                 |
\*---------------------------------------------------------------------------*/
FoamFile
{
    version     2.0;
    format      ascii;
    class       volScalarField;
    location    "11";
    object      p;
}
// * * * * * * * * * * * * * * * * * * * * * * * * * * * * * * * * * * * * * //

dimensions      [0 2 -2 0 0 0 0];


internalField   nonuniform List<scalar> 
244288
(
1.54086e-06
1.54108e-06
1.54104e-06
1.54091e-06
1.54084e-06
1.54092e-06
1.54105e-06
1.54108e-06
1.5411e-06
1.54087e-06
1.54059e-06
1.54049e-06
1.54062e-06
1.54091e-06
1.54111e-06
1.54104e-06
1.54087e-06
1.54044e-06
1.54007e-06
1.53995e-06
1.54011e-06
1.5405e-06
1.54091e-06
1.54103e-06
1.54091e-06
1.54059e-06
1.54007e-06
1.53966e-06
1.53953e-06
1.5397e-06
1.54014e-06
1.54065e-06
1.54092e-06
1.54086e-06
1.54084e-06
1.54049e-06
1.53995e-06
1.53953e-06
1.53938e-06
1.53957e-06
1.54001e-06
1.54055e-06
1.54086e-06
1.54092e-06
1.54062e-06
1.54011e-06
1.5397e-06
1.53957e-06
1.53974e-06
1.54017e-06
1.54068e-06
1.54093e-06
1.54105e-06
1.54091e-06
1.5405e-06
1.54014e-06
1.54001e-06
1.54017e-06
1.54055e-06
1.54095e-06
1.54104e-06
1.54111e-06
1.54091e-06
1.54065e-06
1.54055e-06
1.54068e-06
1.54095e-06
1.54112e-06
1.54103e-06
1.54092e-06
1.54086e-06
1.54093e-06
1.54104e-06
1.51698e-06
1.51659e-06
1.51631e-06
1.51486e-06
1.51478e-06
1.51477e-06
1.5148e-06
1.51623e-06
1.51638e-06
1.51631e-06
1.51443e-06
1.5119e-06
1.5119e-06
1.5119e-06
1.5119e-06
1.51443e-06
1.5149e-06
1.51486e-06
1.5119e-06
1.51185e-06
1.51188e-06
1.51188e-06
1.51184e-06
1.5119e-06
1.5148e-06
1.5165e-06
1.51698e-06
1.51478e-06
1.5119e-06
1.51188e-06
1.51193e-06
1.51193e-06
1.51188e-06
1.5119e-06
1.51471e-06
1.51623e-06
1.51659e-06
1.51477e-06
1.5119e-06
1.51188e-06
1.51193e-06
1.51193e-06
1.51188e-06
1.5119e-06
1.51467e-06
1.51506e-06
1.5148e-06
1.5119e-06
1.51185e-06
1.51188e-06
1.51188e-06
1.51185e-06
1.5119e-06
1.51475e-06
1.51635e-06
1.51623e-06
1.51443e-06
1.5119e-06
1.5119e-06
1.5119e-06
1.5119e-06
1.5143e-06
1.51491e-06
1.51652e-06
1.51638e-06
1.5149e-06
1.5148e-06
1.51471e-06
1.51467e-06
1.51475e-06
1.51491e-06
1.51643e-06
1.5165e-06
1.51623e-06
1.51506e-06
1.51636e-06
1.51652e-06
1.50073e-06
1.5006e-06
1.50052e-06
1.49893e-06
1.49885e-06
1.49882e-06
1.49889e-06
1.50041e-06
1.50061e-06
1.50052e-06
1.4985e-06
1.49578e-06
1.49577e-06
1.49577e-06
1.49578e-06
1.4985e-06
1.49909e-06
1.49893e-06
1.49578e-06
1.49575e-06
1.49575e-06
1.49575e-06
1.49575e-06
1.49578e-06
1.49895e-06
1.50066e-06
1.50073e-06
1.49885e-06
1.49577e-06
1.49575e-06
1.49576e-06
1.49576e-06
1.49575e-06
1.49577e-06
1.49885e-06
1.50038e-06
1.5006e-06
1.49882e-06
1.49577e-06
1.49575e-06
1.49576e-06
1.49576e-06
1.49575e-06
1.49577e-06
1.49881e-06
1.49918e-06
1.49889e-06
1.49578e-06
1.49575e-06
1.49575e-06
1.49575e-06
1.49575e-06
1.49578e-06
1.4989e-06
1.50055e-06
1.50041e-06
1.4985e-06
1.49578e-06
1.49577e-06
1.49577e-06
1.49578e-06
1.49843e-06
1.49905e-06
1.50069e-06
1.50061e-06
1.49909e-06
1.49895e-06
1.49885e-06
1.49882e-06
1.4989e-06
1.49905e-06
1.50045e-06
1.50066e-06
1.50038e-06
1.49919e-06
1.50055e-06
1.50069e-06
1.48469e-06
1.48455e-06
1.48446e-06
1.48285e-06
1.48276e-06
1.48272e-06
1.48281e-06
1.48434e-06
1.48456e-06
1.48445e-06
1.48239e-06
1.47967e-06
1.47967e-06
1.47967e-06
1.47967e-06
1.48241e-06
1.48301e-06
1.48285e-06
1.47967e-06
1.47966e-06
1.47966e-06
1.47966e-06
1.47966e-06
1.47967e-06
1.48289e-06
1.4846e-06
1.48468e-06
1.48276e-06
1.47967e-06
1.47966e-06
1.47966e-06
1.47966e-06
1.47966e-06
1.47967e-06
1.48281e-06
1.48433e-06
1.48455e-06
1.48272e-06
1.47967e-06
1.47966e-06
1.47966e-06
1.47966e-06
1.47966e-06
1.47967e-06
1.48278e-06
1.48314e-06
1.48281e-06
1.47967e-06
1.47966e-06
1.47966e-06
1.47966e-06
1.47966e-06
1.47967e-06
1.48285e-06
1.4845e-06
1.48434e-06
1.48241e-06
1.47967e-06
1.47967e-06
1.47967e-06
1.47967e-06
1.4824e-06
1.483e-06
1.48463e-06
1.48455e-06
1.48301e-06
1.48289e-06
1.48281e-06
1.48278e-06
1.48285e-06
1.48299e-06
1.48448e-06
1.4846e-06
1.48433e-06
1.48314e-06
1.4845e-06
1.48463e-06
1.4686e-06
1.46846e-06
1.46837e-06
1.46676e-06
1.46667e-06
1.46663e-06
1.46672e-06
1.46825e-06
1.46847e-06
1.46837e-06
1.46629e-06
1.46357e-06
1.46357e-06
1.46357e-06
1.46357e-06
1.46631e-06
1.46692e-06
1.46676e-06
1.46357e-06
1.46357e-06
1.46357e-06
1.46357e-06
1.46357e-06
1.46357e-06
1.4668e-06
1.46851e-06
1.4686e-06
1.46666e-06
1.46357e-06
1.46357e-06
1.46357e-06
1.46357e-06
1.46357e-06
1.46357e-06
1.46673e-06
1.46825e-06
1.46846e-06
1.46663e-06
1.46357e-06
1.46357e-06
1.46357e-06
1.46357e-06
1.46357e-06
1.46357e-06
1.4667e-06
1.46706e-06
1.46672e-06
1.46357e-06
1.46357e-06
1.46357e-06
1.46357e-06
1.46357e-06
1.46357e-06
1.46677e-06
1.46841e-06
1.46825e-06
1.46631e-06
1.46357e-06
1.46357e-06
1.46357e-06
1.46357e-06
1.46631e-06
1.46691e-06
1.46855e-06
1.46847e-06
1.46692e-06
1.4668e-06
1.46673e-06
1.46669e-06
1.46676e-06
1.4669e-06
1.46844e-06
1.46851e-06
1.46825e-06
1.46705e-06
1.46841e-06
1.46854e-06
1.4525e-06
1.45237e-06
1.45228e-06
1.45066e-06
1.45057e-06
1.45053e-06
1.45062e-06
1.45216e-06
1.45238e-06
1.45228e-06
1.45019e-06
1.44747e-06
1.44747e-06
1.44747e-06
1.44747e-06
1.45021e-06
1.45082e-06
1.45066e-06
1.44747e-06
1.44747e-06
1.44747e-06
1.44747e-06
1.44747e-06
1.44747e-06
1.45071e-06
1.45242e-06
1.45251e-06
1.45057e-06
1.44747e-06
1.44747e-06
1.44747e-06
1.44747e-06
1.44747e-06
1.44747e-06
1.45064e-06
1.45216e-06
1.45237e-06
1.45053e-06
1.44747e-06
1.44747e-06
1.44747e-06
1.44747e-06
1.44747e-06
1.44747e-06
1.4506e-06
1.45096e-06
1.45062e-06
1.44747e-06
1.44747e-06
1.44747e-06
1.44747e-06
1.44747e-06
1.44747e-06
1.45067e-06
1.45232e-06
1.45216e-06
1.45021e-06
1.44747e-06
1.44747e-06
1.44747e-06
1.44747e-06
1.45022e-06
1.45081e-06
1.45245e-06
1.45238e-06
1.45082e-06
1.4507e-06
1.45064e-06
1.4506e-06
1.45067e-06
1.45081e-06
1.45236e-06
1.45242e-06
1.45216e-06
1.45096e-06
1.45232e-06
1.45245e-06
1.43641e-06
1.43627e-06
1.43618e-06
1.43457e-06
1.43447e-06
1.43443e-06
1.43453e-06
1.43606e-06
1.43629e-06
1.43618e-06
1.43409e-06
1.43137e-06
1.43137e-06
1.43137e-06
1.43137e-06
1.43411e-06
1.43473e-06
1.43457e-06
1.43137e-06
1.43137e-06
1.43137e-06
1.43137e-06
1.43137e-06
1.43137e-06
1.43461e-06
1.43632e-06
1.43641e-06
1.43447e-06
1.43137e-06
1.43137e-06
1.43137e-06
1.43137e-06
1.43137e-06
1.43137e-06
1.43454e-06
1.43606e-06
1.43628e-06
1.43443e-06
1.43137e-06
1.43137e-06
1.43137e-06
1.43137e-06
1.43137e-06
1.43137e-06
1.43451e-06
1.43487e-06
1.43453e-06
1.43137e-06
1.43137e-06
1.43137e-06
1.43137e-06
1.43137e-06
1.43137e-06
1.43458e-06
1.43622e-06
1.43606e-06
1.43411e-06
1.43137e-06
1.43137e-06
1.43137e-06
1.43137e-06
1.43412e-06
1.43472e-06
1.43636e-06
1.43629e-06
1.43473e-06
1.43461e-06
1.43454e-06
1.43451e-06
1.43458e-06
1.43471e-06
1.43628e-06
1.43632e-06
1.43606e-06
1.43487e-06
1.43623e-06
1.43636e-06
1.42032e-06
1.42018e-06
1.42009e-06
1.41847e-06
1.41838e-06
1.41834e-06
1.41843e-06
1.41997e-06
1.42019e-06
1.42009e-06
1.418e-06
1.41528e-06
1.41528e-06
1.41528e-06
1.41528e-06
1.41802e-06
1.41863e-06
1.41847e-06
1.41528e-06
1.41528e-06
1.41528e-06
1.41528e-06
1.41528e-06
1.41528e-06
1.41852e-06
1.42023e-06
1.42032e-06
1.41838e-06
1.41528e-06
1.41528e-06
1.41528e-06
1.41528e-06
1.41528e-06
1.41528e-06
1.41845e-06
1.41997e-06
1.42018e-06
1.41834e-06
1.41528e-06
1.41528e-06
1.41528e-06
1.41528e-06
1.41528e-06
1.41528e-06
1.41841e-06
1.41877e-06
1.41843e-06
1.41528e-06
1.41528e-06
1.41528e-06
1.41528e-06
1.41528e-06
1.41528e-06
1.41848e-06
1.42013e-06
1.41997e-06
1.41802e-06
1.41528e-06
1.41528e-06
1.41528e-06
1.41528e-06
1.41803e-06
1.41862e-06
1.42026e-06
1.42019e-06
1.41863e-06
1.41852e-06
1.41845e-06
1.41841e-06
1.41848e-06
1.41862e-06
1.42018e-06
1.42023e-06
1.41997e-06
1.41877e-06
1.42013e-06
1.42026e-06
1.40422e-06
1.40408e-06
1.40399e-06
1.40238e-06
1.40228e-06
1.40224e-06
1.40234e-06
1.40387e-06
1.4041e-06
1.40399e-06
1.4019e-06
1.39918e-06
1.39918e-06
1.39918e-06
1.39918e-06
1.40192e-06
1.40254e-06
1.40238e-06
1.39918e-06
1.39918e-06
1.39918e-06
1.39918e-06
1.39918e-06
1.39918e-06
1.40242e-06
1.40413e-06
1.40422e-06
1.40228e-06
1.39918e-06
1.39918e-06
1.39918e-06
1.39918e-06
1.39918e-06
1.39918e-06
1.40235e-06
1.40387e-06
1.40408e-06
1.40224e-06
1.39918e-06
1.39918e-06
1.39918e-06
1.39918e-06
1.39918e-06
1.39918e-06
1.40232e-06
1.40268e-06
1.40234e-06
1.39918e-06
1.39918e-06
1.39918e-06
1.39918e-06
1.39918e-06
1.39918e-06
1.40239e-06
1.40404e-06
1.40387e-06
1.40192e-06
1.39918e-06
1.39918e-06
1.39918e-06
1.39918e-06
1.40193e-06
1.40253e-06
1.40417e-06
1.4041e-06
1.40254e-06
1.40242e-06
1.40235e-06
1.40232e-06
1.40239e-06
1.40253e-06
1.40408e-06
1.40413e-06
1.40387e-06
1.40268e-06
1.40404e-06
1.40417e-06
1.38812e-06
1.38799e-06
1.3879e-06
1.38628e-06
1.38619e-06
1.38615e-06
1.38624e-06
1.38778e-06
1.388e-06
1.3879e-06
1.38581e-06
1.38309e-06
1.38309e-06
1.38309e-06
1.38309e-06
1.38583e-06
1.38644e-06
1.38628e-06
1.38309e-06
1.38309e-06
1.38309e-06
1.38309e-06
1.38309e-06
1.38309e-06
1.38633e-06
1.38804e-06
1.38812e-06
1.38619e-06
1.38309e-06
1.38309e-06
1.38309e-06
1.38309e-06
1.38309e-06
1.38309e-06
1.38626e-06
1.38778e-06
1.38799e-06
1.38615e-06
1.38309e-06
1.38309e-06
1.38309e-06
1.38309e-06
1.38309e-06
1.38309e-06
1.38622e-06
1.38658e-06
1.38624e-06
1.38309e-06
1.38309e-06
1.38309e-06
1.38309e-06
1.38309e-06
1.38309e-06
1.38629e-06
1.38794e-06
1.38778e-06
1.38583e-06
1.38309e-06
1.38309e-06
1.38309e-06
1.38309e-06
1.38584e-06
1.38643e-06
1.38807e-06
1.388e-06
1.38644e-06
1.38633e-06
1.38626e-06
1.38622e-06
1.38629e-06
1.38643e-06
1.388e-06
1.38804e-06
1.38778e-06
1.38658e-06
1.38794e-06
1.38807e-06
1.37203e-06
1.37189e-06
1.3718e-06
1.37019e-06
1.37009e-06
1.37005e-06
1.37015e-06
1.37168e-06
1.37191e-06
1.3718e-06
1.36971e-06
1.36699e-06
1.36699e-06
1.36699e-06
1.36699e-06
1.36973e-06
1.37035e-06
1.37019e-06
1.36699e-06
1.36699e-06
1.36699e-06
1.36699e-06
1.36699e-06
1.36699e-06
1.37023e-06
1.37194e-06
1.37203e-06
1.37009e-06
1.36699e-06
1.36699e-06
1.36699e-06
1.36699e-06
1.36699e-06
1.36699e-06
1.37016e-06
1.37168e-06
1.37189e-06
1.37005e-06
1.36699e-06
1.36699e-06
1.36699e-06
1.36699e-06
1.36699e-06
1.36699e-06
1.37013e-06
1.37049e-06
1.37015e-06
1.36699e-06
1.36699e-06
1.36699e-06
1.36699e-06
1.36699e-06
1.36699e-06
1.3702e-06
1.37185e-06
1.37168e-06
1.36973e-06
1.36699e-06
1.36699e-06
1.36699e-06
1.36699e-06
1.36974e-06
1.37034e-06
1.37198e-06
1.37191e-06
1.37035e-06
1.37023e-06
1.37016e-06
1.37013e-06
1.3702e-06
1.37034e-06
1.3719e-06
1.37194e-06
1.37168e-06
1.37049e-06
1.37185e-06
1.37198e-06
1.35593e-06
1.3558e-06
1.35571e-06
1.35409e-06
1.354e-06
1.35396e-06
1.35405e-06
1.35559e-06
1.35581e-06
1.35571e-06
1.35362e-06
1.3509e-06
1.3509e-06
1.3509e-06
1.3509e-06
1.35364e-06
1.35425e-06
1.35409e-06
1.3509e-06
1.3509e-06
1.3509e-06
1.3509e-06
1.3509e-06
1.3509e-06
1.35413e-06
1.35585e-06
1.35593e-06
1.354e-06
1.3509e-06
1.3509e-06
1.3509e-06
1.3509e-06
1.3509e-06
1.3509e-06
1.35407e-06
1.35559e-06
1.3558e-06
1.35396e-06
1.3509e-06
1.3509e-06
1.3509e-06
1.3509e-06
1.3509e-06
1.3509e-06
1.35403e-06
1.35439e-06
1.35405e-06
1.3509e-06
1.3509e-06
1.3509e-06
1.3509e-06
1.3509e-06
1.3509e-06
1.3541e-06
1.35575e-06
1.35559e-06
1.35364e-06
1.3509e-06
1.3509e-06
1.3509e-06
1.3509e-06
1.35365e-06
1.35424e-06
1.35588e-06
1.35581e-06
1.35425e-06
1.35414e-06
1.35407e-06
1.35403e-06
1.3541e-06
1.35424e-06
1.35581e-06
1.35585e-06
1.35559e-06
1.35439e-06
1.35575e-06
1.35588e-06
1.33984e-06
1.3397e-06
1.33961e-06
1.338e-06
1.3379e-06
1.33786e-06
1.33796e-06
1.33949e-06
1.33971e-06
1.33961e-06
1.33752e-06
1.3348e-06
1.3348e-06
1.3348e-06
1.3348e-06
1.33754e-06
1.33816e-06
1.338e-06
1.3348e-06
1.3348e-06
1.3348e-06
1.3348e-06
1.3348e-06
1.3348e-06
1.33804e-06
1.33975e-06
1.33984e-06
1.3379e-06
1.3348e-06
1.3348e-06
1.3348e-06
1.3348e-06
1.3348e-06
1.3348e-06
1.33797e-06
1.33949e-06
1.3397e-06
1.33786e-06
1.3348e-06
1.3348e-06
1.3348e-06
1.3348e-06
1.3348e-06
1.3348e-06
1.33794e-06
1.3383e-06
1.33796e-06
1.3348e-06
1.3348e-06
1.3348e-06
1.3348e-06
1.3348e-06
1.3348e-06
1.33801e-06
1.33965e-06
1.33949e-06
1.33754e-06
1.3348e-06
1.3348e-06
1.3348e-06
1.3348e-06
1.33755e-06
1.33815e-06
1.33979e-06
1.33972e-06
1.33816e-06
1.33804e-06
1.33797e-06
1.33794e-06
1.33801e-06
1.33814e-06
1.33971e-06
1.33975e-06
1.33949e-06
1.3383e-06
1.33965e-06
1.33979e-06
1.32374e-06
1.32361e-06
1.32351e-06
1.3219e-06
1.32181e-06
1.32177e-06
1.32186e-06
1.3234e-06
1.32362e-06
1.32351e-06
1.32143e-06
1.31871e-06
1.31871e-06
1.31871e-06
1.31871e-06
1.32145e-06
1.32206e-06
1.3219e-06
1.31871e-06
1.31871e-06
1.31871e-06
1.31871e-06
1.31871e-06
1.31871e-06
1.32194e-06
1.32366e-06
1.32375e-06
1.3218e-06
1.31871e-06
1.31871e-06
1.31871e-06
1.31871e-06
1.31871e-06
1.31871e-06
1.32188e-06
1.3234e-06
1.32362e-06
1.32176e-06
1.31871e-06
1.31871e-06
1.31871e-06
1.31871e-06
1.31871e-06
1.31871e-06
1.32184e-06
1.3222e-06
1.32186e-06
1.31871e-06
1.31871e-06
1.31871e-06
1.31871e-06
1.31871e-06
1.31871e-06
1.32191e-06
1.32356e-06
1.3234e-06
1.32145e-06
1.31871e-06
1.31871e-06
1.31871e-06
1.31871e-06
1.32146e-06
1.32205e-06
1.32369e-06
1.32362e-06
1.32206e-06
1.32194e-06
1.32188e-06
1.32184e-06
1.32191e-06
1.32205e-06
1.32362e-06
1.32366e-06
1.3234e-06
1.3222e-06
1.32356e-06
1.32369e-06
1.30765e-06
1.30751e-06
1.30742e-06
1.30581e-06
1.30571e-06
1.30567e-06
1.30577e-06
1.3073e-06
1.30752e-06
1.30742e-06
1.30533e-06
1.30261e-06
1.30261e-06
1.30261e-06
1.30261e-06
1.30535e-06
1.30597e-06
1.30581e-06
1.30261e-06
1.30261e-06
1.30261e-06
1.30261e-06
1.30261e-06
1.30261e-06
1.30585e-06
1.30756e-06
1.30765e-06
1.30571e-06
1.30261e-06
1.30261e-06
1.30261e-06
1.30261e-06
1.30261e-06
1.30261e-06
1.30578e-06
1.3073e-06
1.30751e-06
1.30567e-06
1.30261e-06
1.30261e-06
1.30261e-06
1.30261e-06
1.30261e-06
1.30261e-06
1.30575e-06
1.30611e-06
1.30577e-06
1.30261e-06
1.30261e-06
1.30261e-06
1.30261e-06
1.30261e-06
1.30261e-06
1.30582e-06
1.30746e-06
1.3073e-06
1.30535e-06
1.30261e-06
1.30261e-06
1.30261e-06
1.30261e-06
1.30536e-06
1.30596e-06
1.3076e-06
1.30752e-06
1.30597e-06
1.30585e-06
1.30578e-06
1.30575e-06
1.30582e-06
1.30595e-06
1.30752e-06
1.30756e-06
1.3073e-06
1.30611e-06
1.30746e-06
1.30759e-06
1.29155e-06
1.29142e-06
1.29132e-06
1.28971e-06
1.28962e-06
1.28958e-06
1.28967e-06
1.29121e-06
1.29143e-06
1.29132e-06
1.28924e-06
1.28652e-06
1.28652e-06
1.28652e-06
1.28652e-06
1.28926e-06
1.28987e-06
1.28971e-06
1.28652e-06
1.28652e-06
1.28652e-06
1.28652e-06
1.28652e-06
1.28652e-06
1.28975e-06
1.29146e-06
1.29155e-06
1.28962e-06
1.28652e-06
1.28652e-06
1.28652e-06
1.28652e-06
1.28652e-06
1.28652e-06
1.28969e-06
1.29121e-06
1.29142e-06
1.28958e-06
1.28652e-06
1.28652e-06
1.28652e-06
1.28652e-06
1.28652e-06
1.28652e-06
1.28965e-06
1.29001e-06
1.28967e-06
1.28652e-06
1.28652e-06
1.28652e-06
1.28652e-06
1.28652e-06
1.28652e-06
1.28972e-06
1.29137e-06
1.29121e-06
1.28926e-06
1.28652e-06
1.28652e-06
1.28652e-06
1.28652e-06
1.28927e-06
1.28986e-06
1.2915e-06
1.29143e-06
1.28987e-06
1.28975e-06
1.28969e-06
1.28965e-06
1.28972e-06
1.28986e-06
1.29143e-06
1.29146e-06
1.29121e-06
1.29001e-06
1.29137e-06
1.2915e-06
1.27546e-06
1.27532e-06
1.27523e-06
1.27362e-06
1.27352e-06
1.27348e-06
1.27358e-06
1.27511e-06
1.27533e-06
1.27523e-06
1.27314e-06
1.27042e-06
1.27042e-06
1.27042e-06
1.27042e-06
1.27316e-06
1.27378e-06
1.27362e-06
1.27042e-06
1.27042e-06
1.27042e-06
1.27042e-06
1.27042e-06
1.27042e-06
1.27366e-06
1.27537e-06
1.27546e-06
1.27352e-06
1.27042e-06
1.27042e-06
1.27042e-06
1.27042e-06
1.27042e-06
1.27042e-06
1.27359e-06
1.27511e-06
1.27532e-06
1.27348e-06
1.27042e-06
1.27042e-06
1.27042e-06
1.27042e-06
1.27042e-06
1.27042e-06
1.27356e-06
1.27392e-06
1.27358e-06
1.27042e-06
1.27042e-06
1.27042e-06
1.27042e-06
1.27042e-06
1.27042e-06
1.27363e-06
1.27527e-06
1.27511e-06
1.27316e-06
1.27042e-06
1.27042e-06
1.27042e-06
1.27042e-06
1.27317e-06
1.27377e-06
1.2754e-06
1.27533e-06
1.27378e-06
1.27366e-06
1.27359e-06
1.27356e-06
1.27363e-06
1.27376e-06
1.27533e-06
1.27537e-06
1.27511e-06
1.27392e-06
1.27527e-06
1.2754e-06
1.25936e-06
1.25923e-06
1.25913e-06
1.25752e-06
1.25743e-06
1.25739e-06
1.25748e-06
1.25902e-06
1.25924e-06
1.25913e-06
1.25705e-06
1.25433e-06
1.25433e-06
1.25433e-06
1.25433e-06
1.25707e-06
1.25768e-06
1.25752e-06
1.25433e-06
1.25433e-06
1.25433e-06
1.25433e-06
1.25433e-06
1.25433e-06
1.25756e-06
1.25927e-06
1.25936e-06
1.25743e-06
1.25433e-06
1.25433e-06
1.25433e-06
1.25433e-06
1.25433e-06
1.25433e-06
1.2575e-06
1.25902e-06
1.25923e-06
1.25739e-06
1.25433e-06
1.25433e-06
1.25433e-06
1.25433e-06
1.25433e-06
1.25433e-06
1.25746e-06
1.25782e-06
1.25748e-06
1.25433e-06
1.25433e-06
1.25433e-06
1.25433e-06
1.25433e-06
1.25433e-06
1.25753e-06
1.25918e-06
1.25902e-06
1.25707e-06
1.25433e-06
1.25433e-06
1.25433e-06
1.25433e-06
1.25708e-06
1.25767e-06
1.25931e-06
1.25924e-06
1.25768e-06
1.25756e-06
1.2575e-06
1.25746e-06
1.25753e-06
1.25767e-06
1.25924e-06
1.25927e-06
1.25902e-06
1.25782e-06
1.25918e-06
1.25931e-06
1.24327e-06
1.24313e-06
1.24304e-06
1.24142e-06
1.24133e-06
1.24129e-06
1.24139e-06
1.24292e-06
1.24314e-06
1.24304e-06
1.24095e-06
1.23823e-06
1.23823e-06
1.23823e-06
1.23823e-06
1.24097e-06
1.24159e-06
1.24142e-06
1.23823e-06
1.23823e-06
1.23823e-06
1.23823e-06
1.23823e-06
1.23823e-06
1.24147e-06
1.24318e-06
1.24327e-06
1.24133e-06
1.23823e-06
1.23823e-06
1.23823e-06
1.23823e-06
1.23823e-06
1.23823e-06
1.2414e-06
1.24292e-06
1.24313e-06
1.24129e-06
1.23823e-06
1.23823e-06
1.23823e-06
1.23823e-06
1.23823e-06
1.23823e-06
1.24137e-06
1.24173e-06
1.24139e-06
1.23823e-06
1.23823e-06
1.23823e-06
1.23823e-06
1.23823e-06
1.23823e-06
1.24144e-06
1.24308e-06
1.24292e-06
1.24097e-06
1.23823e-06
1.23823e-06
1.23823e-06
1.23823e-06
1.24098e-06
1.24157e-06
1.24321e-06
1.24314e-06
1.24159e-06
1.24147e-06
1.2414e-06
1.24137e-06
1.24143e-06
1.24157e-06
1.24314e-06
1.24318e-06
1.24292e-06
1.24173e-06
1.24308e-06
1.24321e-06
1.22717e-06
1.22704e-06
1.22694e-06
1.22533e-06
1.22524e-06
1.2252e-06
1.22529e-06
1.22683e-06
1.22705e-06
1.22694e-06
1.22486e-06
1.22214e-06
1.22214e-06
1.22214e-06
1.22214e-06
1.22488e-06
1.22549e-06
1.22533e-06
1.22214e-06
1.22214e-06
1.22214e-06
1.22214e-06
1.22214e-06
1.22214e-06
1.22537e-06
1.22708e-06
1.22717e-06
1.22524e-06
1.22214e-06
1.22214e-06
1.22214e-06
1.22214e-06
1.22214e-06
1.22214e-06
1.22531e-06
1.22683e-06
1.22704e-06
1.2252e-06
1.22214e-06
1.22214e-06
1.22214e-06
1.22214e-06
1.22214e-06
1.22214e-06
1.22527e-06
1.22563e-06
1.22529e-06
1.22214e-06
1.22214e-06
1.22214e-06
1.22214e-06
1.22214e-06
1.22214e-06
1.22534e-06
1.22699e-06
1.22683e-06
1.22488e-06
1.22214e-06
1.22214e-06
1.22214e-06
1.22214e-06
1.22489e-06
1.22548e-06
1.22712e-06
1.22705e-06
1.22549e-06
1.22537e-06
1.22531e-06
1.22527e-06
1.22534e-06
1.22548e-06
1.22705e-06
1.22708e-06
1.22683e-06
1.22563e-06
1.22699e-06
1.22712e-06
1.21108e-06
1.21094e-06
1.21085e-06
1.20923e-06
1.20914e-06
1.2091e-06
1.2092e-06
1.21073e-06
1.21095e-06
1.21085e-06
1.20876e-06
1.20604e-06
1.20604e-06
1.20604e-06
1.20604e-06
1.20878e-06
1.2094e-06
1.20923e-06
1.20604e-06
1.20604e-06
1.20604e-06
1.20604e-06
1.20604e-06
1.20604e-06
1.20928e-06
1.21099e-06
1.21108e-06
1.20914e-06
1.20604e-06
1.20604e-06
1.20604e-06
1.20604e-06
1.20604e-06
1.20604e-06
1.20921e-06
1.21073e-06
1.21094e-06
1.2091e-06
1.20604e-06
1.20604e-06
1.20604e-06
1.20604e-06
1.20604e-06
1.20604e-06
1.20918e-06
1.20954e-06
1.2092e-06
1.20604e-06
1.20604e-06
1.20604e-06
1.20604e-06
1.20604e-06
1.20604e-06
1.20925e-06
1.21089e-06
1.21073e-06
1.20878e-06
1.20604e-06
1.20604e-06
1.20604e-06
1.20604e-06
1.20879e-06
1.20938e-06
1.21102e-06
1.21095e-06
1.2094e-06
1.20928e-06
1.20921e-06
1.20918e-06
1.20925e-06
1.20938e-06
1.21095e-06
1.21099e-06
1.21073e-06
1.20954e-06
1.21089e-06
1.21102e-06
1.19498e-06
1.19485e-06
1.19475e-06
1.19314e-06
1.19305e-06
1.19301e-06
1.1931e-06
1.19464e-06
1.19486e-06
1.19475e-06
1.19267e-06
1.18995e-06
1.18995e-06
1.18995e-06
1.18995e-06
1.19268e-06
1.1933e-06
1.19314e-06
1.18995e-06
1.18995e-06
1.18995e-06
1.18995e-06
1.18995e-06
1.18995e-06
1.19318e-06
1.19489e-06
1.19498e-06
1.19305e-06
1.18995e-06
1.18995e-06
1.18995e-06
1.18995e-06
1.18995e-06
1.18995e-06
1.19312e-06
1.19464e-06
1.19485e-06
1.19301e-06
1.18995e-06
1.18995e-06
1.18995e-06
1.18995e-06
1.18995e-06
1.18995e-06
1.19308e-06
1.19344e-06
1.1931e-06
1.18995e-06
1.18995e-06
1.18995e-06
1.18995e-06
1.18995e-06
1.18995e-06
1.19315e-06
1.1948e-06
1.19464e-06
1.19268e-06
1.18995e-06
1.18995e-06
1.18995e-06
1.18995e-06
1.1927e-06
1.19329e-06
1.19493e-06
1.19486e-06
1.1933e-06
1.19318e-06
1.19312e-06
1.19308e-06
1.19315e-06
1.19329e-06
1.19486e-06
1.19489e-06
1.19464e-06
1.19344e-06
1.1948e-06
1.19493e-06
1.17889e-06
1.17875e-06
1.17866e-06
1.17704e-06
1.17695e-06
1.17691e-06
1.17701e-06
1.17854e-06
1.17876e-06
1.17866e-06
1.17657e-06
1.17385e-06
1.17385e-06
1.17385e-06
1.17385e-06
1.17659e-06
1.17721e-06
1.17704e-06
1.17385e-06
1.17385e-06
1.17385e-06
1.17385e-06
1.17385e-06
1.17385e-06
1.17709e-06
1.1788e-06
1.17889e-06
1.17695e-06
1.17385e-06
1.17385e-06
1.17385e-06
1.17385e-06
1.17385e-06
1.17385e-06
1.17702e-06
1.17854e-06
1.17875e-06
1.17691e-06
1.17385e-06
1.17385e-06
1.17385e-06
1.17385e-06
1.17385e-06
1.17385e-06
1.17699e-06
1.17735e-06
1.17701e-06
1.17385e-06
1.17385e-06
1.17385e-06
1.17385e-06
1.17385e-06
1.17385e-06
1.17705e-06
1.1787e-06
1.17854e-06
1.17659e-06
1.17385e-06
1.17385e-06
1.17385e-06
1.17385e-06
1.1766e-06
1.17719e-06
1.17883e-06
1.17876e-06
1.17721e-06
1.17709e-06
1.17702e-06
1.17699e-06
1.17705e-06
1.17719e-06
1.17876e-06
1.1788e-06
1.17854e-06
1.17735e-06
1.1787e-06
1.17883e-06
1.16279e-06
1.16266e-06
1.16256e-06
1.16095e-06
1.16086e-06
1.16082e-06
1.16091e-06
1.16245e-06
1.16267e-06
1.16256e-06
1.16048e-06
1.15776e-06
1.15776e-06
1.15776e-06
1.15776e-06
1.16049e-06
1.16111e-06
1.16095e-06
1.15776e-06
1.15776e-06
1.15776e-06
1.15776e-06
1.15776e-06
1.15776e-06
1.16099e-06
1.1627e-06
1.16279e-06
1.16086e-06
1.15776e-06
1.15776e-06
1.15776e-06
1.15776e-06
1.15776e-06
1.15776e-06
1.16093e-06
1.16245e-06
1.16266e-06
1.16082e-06
1.15776e-06
1.15776e-06
1.15776e-06
1.15776e-06
1.15776e-06
1.15776e-06
1.16089e-06
1.16125e-06
1.16091e-06
1.15776e-06
1.15776e-06
1.15776e-06
1.15776e-06
1.15776e-06
1.15776e-06
1.16096e-06
1.16261e-06
1.16245e-06
1.16049e-06
1.15776e-06
1.15776e-06
1.15776e-06
1.15776e-06
1.16051e-06
1.1611e-06
1.16274e-06
1.16267e-06
1.16111e-06
1.16099e-06
1.16093e-06
1.16089e-06
1.16096e-06
1.1611e-06
1.16267e-06
1.1627e-06
1.16245e-06
1.16125e-06
1.16261e-06
1.16274e-06
1.1467e-06
1.14656e-06
1.14647e-06
1.14485e-06
1.14476e-06
1.14472e-06
1.14481e-06
1.14635e-06
1.14657e-06
1.14647e-06
1.14438e-06
1.14166e-06
1.14166e-06
1.14166e-06
1.14166e-06
1.1444e-06
1.14502e-06
1.14485e-06
1.14166e-06
1.14166e-06
1.14166e-06
1.14166e-06
1.14166e-06
1.14166e-06
1.1449e-06
1.14661e-06
1.1467e-06
1.14476e-06
1.14166e-06
1.14166e-06
1.14166e-06
1.14166e-06
1.14166e-06
1.14166e-06
1.14483e-06
1.14635e-06
1.14656e-06
1.14472e-06
1.14166e-06
1.14166e-06
1.14166e-06
1.14166e-06
1.14166e-06
1.14166e-06
1.1448e-06
1.14516e-06
1.14482e-06
1.14166e-06
1.14166e-06
1.14166e-06
1.14166e-06
1.14166e-06
1.14166e-06
1.14486e-06
1.14651e-06
1.14635e-06
1.1444e-06
1.14166e-06
1.14166e-06
1.14166e-06
1.14166e-06
1.14441e-06
1.145e-06
1.14664e-06
1.14657e-06
1.14502e-06
1.1449e-06
1.14483e-06
1.1448e-06
1.14486e-06
1.145e-06
1.14657e-06
1.14661e-06
1.14635e-06
1.14516e-06
1.14651e-06
1.14664e-06
1.1306e-06
1.13047e-06
1.13037e-06
1.12876e-06
1.12867e-06
1.12862e-06
1.12872e-06
1.13025e-06
1.13048e-06
1.13037e-06
1.12829e-06
1.12556e-06
1.12556e-06
1.12556e-06
1.12556e-06
1.1283e-06
1.12892e-06
1.12876e-06
1.12556e-06
1.12556e-06
1.12556e-06
1.12556e-06
1.12557e-06
1.12556e-06
1.1288e-06
1.13051e-06
1.1306e-06
1.12867e-06
1.12556e-06
1.12556e-06
1.12556e-06
1.12556e-06
1.12556e-06
1.12556e-06
1.12873e-06
1.13026e-06
1.13046e-06
1.12862e-06
1.12556e-06
1.12556e-06
1.12557e-06
1.12557e-06
1.12557e-06
1.12556e-06
1.1287e-06
1.12906e-06
1.12872e-06
1.12556e-06
1.12556e-06
1.12557e-06
1.12557e-06
1.12557e-06
1.12556e-06
1.12877e-06
1.13042e-06
1.13026e-06
1.1283e-06
1.12556e-06
1.12557e-06
1.12557e-06
1.12557e-06
1.12832e-06
1.12891e-06
1.13055e-06
1.13048e-06
1.12892e-06
1.1288e-06
1.12873e-06
1.1287e-06
1.12877e-06
1.12891e-06
1.13047e-06
1.13051e-06
1.13025e-06
1.12906e-06
1.13042e-06
1.13055e-06
1.11451e-06
1.11437e-06
1.11428e-06
1.11266e-06
1.11257e-06
1.11253e-06
1.11262e-06
1.11416e-06
1.11438e-06
1.11428e-06
1.11219e-06
1.10947e-06
1.10947e-06
1.10947e-06
1.10947e-06
1.11221e-06
1.11282e-06
1.11266e-06
1.10947e-06
1.10947e-06
1.10947e-06
1.10947e-06
1.10947e-06
1.10947e-06
1.11271e-06
1.11442e-06
1.11451e-06
1.11257e-06
1.10947e-06
1.10947e-06
1.10947e-06
1.10947e-06
1.10947e-06
1.10947e-06
1.11264e-06
1.11416e-06
1.11437e-06
1.11253e-06
1.10947e-06
1.10947e-06
1.10947e-06
1.10947e-06
1.10947e-06
1.10947e-06
1.11261e-06
1.11297e-06
1.11262e-06
1.10947e-06
1.10947e-06
1.10947e-06
1.10947e-06
1.10947e-06
1.10947e-06
1.11267e-06
1.11432e-06
1.11416e-06
1.11221e-06
1.10947e-06
1.10947e-06
1.10947e-06
1.10947e-06
1.11222e-06
1.11281e-06
1.11445e-06
1.11438e-06
1.11283e-06
1.11271e-06
1.11264e-06
1.11261e-06
1.11267e-06
1.11281e-06
1.11438e-06
1.11442e-06
1.11416e-06
1.11297e-06
1.11432e-06
1.11445e-06
1.09841e-06
1.09827e-06
1.09818e-06
1.09657e-06
1.09647e-06
1.09643e-06
1.09653e-06
1.09806e-06
1.09829e-06
1.09818e-06
1.0961e-06
1.09337e-06
1.09337e-06
1.09337e-06
1.09337e-06
1.09611e-06
1.09673e-06
1.09657e-06
1.09337e-06
1.09337e-06
1.09337e-06
1.09337e-06
1.09337e-06
1.09337e-06
1.09661e-06
1.09832e-06
1.09841e-06
1.09648e-06
1.09337e-06
1.09337e-06
1.09337e-06
1.09337e-06
1.09337e-06
1.09337e-06
1.09654e-06
1.09807e-06
1.09827e-06
1.09644e-06
1.09337e-06
1.09337e-06
1.09337e-06
1.09337e-06
1.09337e-06
1.09337e-06
1.09651e-06
1.09687e-06
1.09653e-06
1.09337e-06
1.09337e-06
1.09337e-06
1.09337e-06
1.09337e-06
1.09337e-06
1.09658e-06
1.09823e-06
1.09806e-06
1.09611e-06
1.09337e-06
1.09337e-06
1.09337e-06
1.09337e-06
1.09613e-06
1.09672e-06
1.09836e-06
1.09829e-06
1.09673e-06
1.09661e-06
1.09654e-06
1.09651e-06
1.09658e-06
1.09672e-06
1.09828e-06
1.09832e-06
1.09807e-06
1.09687e-06
1.09823e-06
1.09836e-06
1.08232e-06
1.08218e-06
1.08209e-06
1.08047e-06
1.08038e-06
1.08034e-06
1.08043e-06
1.08197e-06
1.08219e-06
1.08209e-06
1.08e-06
1.07728e-06
1.07728e-06
1.07728e-06
1.07728e-06
1.08002e-06
1.08063e-06
1.08047e-06
1.07728e-06
1.07728e-06
1.07728e-06
1.07728e-06
1.07728e-06
1.07728e-06
1.08052e-06
1.08223e-06
1.08231e-06
1.08038e-06
1.07728e-06
1.07728e-06
1.07728e-06
1.07728e-06
1.07728e-06
1.07728e-06
1.08045e-06
1.08197e-06
1.08218e-06
1.08034e-06
1.07728e-06
1.07728e-06
1.07728e-06
1.07728e-06
1.07728e-06
1.07728e-06
1.08042e-06
1.08078e-06
1.08043e-06
1.07728e-06
1.07728e-06
1.07728e-06
1.07728e-06
1.07728e-06
1.07728e-06
1.08048e-06
1.08213e-06
1.08197e-06
1.08002e-06
1.07728e-06
1.07728e-06
1.07728e-06
1.07728e-06
1.08003e-06
1.08062e-06
1.08226e-06
1.08219e-06
1.08063e-06
1.08052e-06
1.08045e-06
1.08042e-06
1.08048e-06
1.08062e-06
1.08219e-06
1.08223e-06
1.08197e-06
1.08078e-06
1.08213e-06
1.08226e-06
1.06622e-06
1.06608e-06
1.06599e-06
1.06438e-06
1.06428e-06
1.06424e-06
1.06434e-06
1.06587e-06
1.0661e-06
1.06599e-06
1.06391e-06
1.06118e-06
1.06118e-06
1.06118e-06
1.06118e-06
1.06392e-06
1.06454e-06
1.06438e-06
1.06118e-06
1.06118e-06
1.06118e-06
1.06118e-06
1.06118e-06
1.06118e-06
1.06442e-06
1.06613e-06
1.06622e-06
1.06429e-06
1.06118e-06
1.06118e-06
1.06118e-06
1.06118e-06
1.06118e-06
1.06118e-06
1.06435e-06
1.06587e-06
1.06608e-06
1.06425e-06
1.06118e-06
1.06118e-06
1.06118e-06
1.06118e-06
1.06118e-06
1.06118e-06
1.06432e-06
1.06468e-06
1.06434e-06
1.06118e-06
1.06118e-06
1.06118e-06
1.06118e-06
1.06118e-06
1.06118e-06
1.06439e-06
1.06604e-06
1.06587e-06
1.06392e-06
1.06118e-06
1.06118e-06
1.06118e-06
1.06118e-06
1.06394e-06
1.06453e-06
1.06617e-06
1.0661e-06
1.06454e-06
1.06442e-06
1.06435e-06
1.06432e-06
1.06439e-06
1.06453e-06
1.06609e-06
1.06613e-06
1.06588e-06
1.06468e-06
1.06604e-06
1.06617e-06
1.05013e-06
1.04999e-06
1.0499e-06
1.04828e-06
1.04819e-06
1.04815e-06
1.04824e-06
1.04978e-06
1.05e-06
1.0499e-06
1.04781e-06
1.04509e-06
1.04509e-06
1.04509e-06
1.04509e-06
1.04783e-06
1.04844e-06
1.04828e-06
1.04509e-06
1.04509e-06
1.04509e-06
1.04509e-06
1.04509e-06
1.04509e-06
1.04833e-06
1.05004e-06
1.05013e-06
1.04819e-06
1.04509e-06
1.04509e-06
1.04509e-06
1.04509e-06
1.04509e-06
1.04509e-06
1.04826e-06
1.04978e-06
1.04999e-06
1.04815e-06
1.04509e-06
1.04509e-06
1.04509e-06
1.04509e-06
1.04509e-06
1.04509e-06
1.04823e-06
1.04858e-06
1.04824e-06
1.04509e-06
1.04509e-06
1.04509e-06
1.04509e-06
1.04509e-06
1.04509e-06
1.04829e-06
1.04994e-06
1.04978e-06
1.04783e-06
1.04509e-06
1.04509e-06
1.04509e-06
1.04509e-06
1.04784e-06
1.04843e-06
1.05007e-06
1.05e-06
1.04845e-06
1.04833e-06
1.04826e-06
1.04823e-06
1.04829e-06
1.04843e-06
1.05e-06
1.05004e-06
1.04978e-06
1.04858e-06
1.04994e-06
1.05007e-06
1.03403e-06
1.03389e-06
1.0338e-06
1.03219e-06
1.03209e-06
1.03205e-06
1.03215e-06
1.03368e-06
1.03391e-06
1.0338e-06
1.03171e-06
1.02899e-06
1.02899e-06
1.02899e-06
1.02899e-06
1.03173e-06
1.03235e-06
1.03219e-06
1.02899e-06
1.02899e-06
1.02899e-06
1.02899e-06
1.02899e-06
1.02899e-06
1.03223e-06
1.03394e-06
1.03403e-06
1.03209e-06
1.02899e-06
1.02899e-06
1.02899e-06
1.02899e-06
1.02899e-06
1.02899e-06
1.03216e-06
1.03368e-06
1.03389e-06
1.03205e-06
1.02899e-06
1.02899e-06
1.02899e-06
1.02899e-06
1.02899e-06
1.02899e-06
1.03213e-06
1.03249e-06
1.03215e-06
1.02899e-06
1.02899e-06
1.02899e-06
1.02899e-06
1.02899e-06
1.02899e-06
1.0322e-06
1.03385e-06
1.03368e-06
1.03173e-06
1.02899e-06
1.02899e-06
1.02899e-06
1.02899e-06
1.03174e-06
1.03234e-06
1.03398e-06
1.03391e-06