/*--------------------------------*- C++ -*----------------------------------*\
| =========                 |                                                 |
| \\      /  F ield         | OpenFOAM: The Open Source CFD Toolbox           |
|  \\    /   O peration     | Version:  v2012                                 |
|   \\  /    A nd           | Website:  www.openfoam.com                      |
|    \\/     M anipulation  |                                                 |
\*---------------------------------------------------------------------------*/
FoamFile
{
    version     2.0;
    format      ascii;
    class       volScalarField;
    location    "17.5";
    object      p;
}
// * * * * * * * * * * * * * * * * * * * * * * * * * * * * * * * * * * * * * //

dimensions      [0 2 -2 0 0 0 0];


internalField   nonuniform List<scalar> 
244288
(
1.4362e-06
1.43628e-06
1.43626e-06
1.43618e-06
1.43613e-06
1.43619e-06
1.43626e-06
1.43628e-06
1.43631e-06
1.4361e-06
1.43585e-06
1.43576e-06
1.43588e-06
1.43613e-06
1.43632e-06
1.43626e-06
1.4361e-06
1.4357e-06
1.43537e-06
1.43526e-06
1.4354e-06
1.43575e-06
1.43614e-06
1.43625e-06
1.43618e-06
1.43585e-06
1.43537e-06
1.435e-06
1.43487e-06
1.43503e-06
1.43543e-06
1.43591e-06
1.43619e-06
1.4362e-06
1.43613e-06
1.43576e-06
1.43526e-06
1.43487e-06
1.43475e-06
1.43491e-06
1.43532e-06
1.43583e-06
1.43615e-06
1.43619e-06
1.43588e-06
1.4354e-06
1.43503e-06
1.43491e-06
1.43507e-06
1.43546e-06
1.43593e-06
1.4362e-06
1.43626e-06
1.43613e-06
1.43575e-06
1.43543e-06
1.43532e-06
1.43546e-06
1.4358e-06
1.43617e-06
1.43625e-06
1.43632e-06
1.43614e-06
1.43591e-06
1.43583e-06
1.43593e-06
1.43617e-06
1.43633e-06
1.43625e-06
1.43619e-06
1.43615e-06
1.4362e-06
1.43625e-06
1.41492e-06
1.41459e-06
1.41445e-06
1.41306e-06
1.41296e-06
1.41296e-06
1.41299e-06
1.4144e-06
1.41451e-06
1.41445e-06
1.41259e-06
1.41027e-06
1.41027e-06
1.41027e-06
1.41027e-06
1.41268e-06
1.41319e-06
1.41306e-06
1.41027e-06
1.41023e-06
1.41027e-06
1.41027e-06
1.41023e-06
1.41027e-06
1.41314e-06
1.41465e-06
1.41492e-06
1.41296e-06
1.41027e-06
1.41027e-06
1.41032e-06
1.41032e-06
1.41027e-06
1.41027e-06
1.41309e-06
1.41442e-06
1.4146e-06
1.41296e-06
1.41027e-06
1.41027e-06
1.41032e-06
1.41032e-06
1.41027e-06
1.41027e-06
1.41305e-06
1.4133e-06
1.41299e-06
1.41027e-06
1.41023e-06
1.41027e-06
1.41027e-06
1.41023e-06
1.41027e-06
1.41311e-06
1.41457e-06
1.4144e-06
1.41268e-06
1.41027e-06
1.41027e-06
1.41027e-06
1.41027e-06
1.41272e-06
1.41321e-06
1.41467e-06
1.41451e-06
1.41319e-06
1.41314e-06
1.41309e-06
1.41305e-06
1.41311e-06
1.41321e-06
1.41439e-06
1.41465e-06
1.41441e-06
1.4133e-06
1.41457e-06
1.41467e-06
1.39982e-06
1.39971e-06
1.3996e-06
1.39813e-06
1.39805e-06
1.39801e-06
1.3981e-06
1.39953e-06
1.39971e-06
1.3996e-06
1.39767e-06
1.39521e-06
1.3952e-06
1.3952e-06
1.39521e-06
1.39776e-06
1.39834e-06
1.39813e-06
1.39521e-06
1.39518e-06
1.39519e-06
1.39519e-06
1.39518e-06
1.39521e-06
1.39825e-06
1.39979e-06
1.39982e-06
1.39805e-06
1.3952e-06
1.39519e-06
1.3952e-06
1.3952e-06
1.39519e-06
1.3952e-06
1.3982e-06
1.39955e-06
1.3997e-06
1.39801e-06
1.3952e-06
1.39519e-06
1.3952e-06
1.3952e-06
1.39519e-06
1.3952e-06
1.39817e-06
1.39843e-06
1.3981e-06
1.39521e-06
1.39518e-06
1.39519e-06
1.39519e-06
1.39518e-06
1.39521e-06
1.39823e-06
1.39973e-06
1.39953e-06
1.39776e-06
1.39521e-06
1.3952e-06
1.3952e-06
1.39521e-06
1.39783e-06
1.39831e-06
1.39981e-06
1.39971e-06
1.39834e-06
1.39825e-06
1.3982e-06
1.39817e-06
1.39823e-06
1.39831e-06
1.3996e-06
1.39979e-06
1.39955e-06
1.39843e-06
1.39973e-06
1.39981e-06
1.3848e-06
1.38468e-06
1.38457e-06
1.38309e-06
1.383e-06
1.38296e-06
1.38306e-06
1.3845e-06
1.38467e-06
1.38457e-06
1.38262e-06
1.38015e-06
1.38015e-06
1.38015e-06
1.38015e-06
1.3827e-06
1.3833e-06
1.38309e-06
1.38015e-06
1.38014e-06
1.38014e-06
1.38014e-06
1.38014e-06
1.38015e-06
1.38321e-06
1.38476e-06
1.3848e-06
1.383e-06
1.38015e-06
1.38014e-06
1.38015e-06
1.38015e-06
1.38014e-06
1.38015e-06
1.38317e-06
1.38453e-06
1.38468e-06
1.38296e-06
1.38015e-06
1.38014e-06
1.38015e-06
1.38015e-06
1.38014e-06
1.38015e-06
1.38314e-06
1.38341e-06
1.38306e-06
1.38015e-06
1.38014e-06
1.38014e-06
1.38014e-06
1.38014e-06
1.38015e-06
1.38319e-06
1.38471e-06
1.3845e-06
1.3827e-06
1.38015e-06
1.38015e-06
1.38015e-06
1.38015e-06
1.38281e-06
1.38329e-06
1.38478e-06
1.38467e-06
1.3833e-06
1.38321e-06
1.38317e-06
1.38314e-06
1.38319e-06
1.38329e-06
1.38457e-06
1.38476e-06
1.38453e-06
1.38341e-06
1.3847e-06
1.38478e-06
1.36975e-06
1.36964e-06
1.36953e-06
1.36804e-06
1.36795e-06
1.36791e-06
1.36801e-06
1.36945e-06
1.36963e-06
1.36953e-06
1.36757e-06
1.3651e-06
1.3651e-06
1.3651e-06
1.3651e-06
1.36765e-06
1.36826e-06
1.36804e-06
1.3651e-06
1.3651e-06
1.3651e-06
1.3651e-06
1.3651e-06
1.3651e-06
1.36817e-06
1.36972e-06
1.36975e-06
1.36795e-06
1.3651e-06
1.3651e-06
1.3651e-06
1.3651e-06
1.3651e-06
1.3651e-06
1.36812e-06
1.36949e-06
1.36964e-06
1.36791e-06
1.3651e-06
1.3651e-06
1.3651e-06
1.3651e-06
1.3651e-06
1.3651e-06
1.36809e-06
1.36837e-06
1.36801e-06
1.3651e-06
1.3651e-06
1.3651e-06
1.3651e-06
1.3651e-06
1.3651e-06
1.36815e-06
1.36966e-06
1.36945e-06
1.36765e-06
1.3651e-06
1.3651e-06
1.3651e-06
1.3651e-06
1.36776e-06
1.36824e-06
1.36974e-06
1.36963e-06
1.36826e-06
1.36817e-06
1.36812e-06
1.36809e-06
1.36815e-06
1.36824e-06
1.36953e-06
1.36972e-06
1.36949e-06
1.36837e-06
1.36966e-06
1.36974e-06
1.35471e-06
1.35459e-06
1.35448e-06
1.35299e-06
1.3529e-06
1.35286e-06
1.35296e-06
1.3544e-06
1.35458e-06
1.35448e-06
1.35253e-06
1.35005e-06
1.35005e-06
1.35005e-06
1.35005e-06
1.3526e-06
1.35321e-06
1.35299e-06
1.35005e-06
1.35005e-06
1.35005e-06
1.35005e-06
1.35005e-06
1.35005e-06
1.35312e-06
1.35467e-06
1.35471e-06
1.3529e-06
1.35005e-06
1.35005e-06
1.35005e-06
1.35005e-06
1.35005e-06
1.35005e-06
1.35308e-06
1.35444e-06
1.35459e-06
1.35286e-06
1.35005e-06
1.35005e-06
1.35005e-06
1.35005e-06
1.35005e-06
1.35005e-06
1.35305e-06
1.35332e-06
1.35296e-06
1.35005e-06
1.35005e-06
1.35005e-06
1.35005e-06
1.35005e-06
1.35005e-06
1.3531e-06
1.35462e-06
1.3544e-06
1.3526e-06
1.35005e-06
1.35005e-06
1.35005e-06
1.35005e-06
1.35272e-06
1.3532e-06
1.35469e-06
1.35458e-06
1.35321e-06
1.35312e-06
1.35308e-06
1.35305e-06
1.3531e-06
1.3532e-06
1.35448e-06
1.35467e-06
1.35444e-06
1.35332e-06
1.35462e-06
1.35469e-06
1.33966e-06
1.33954e-06
1.33943e-06
1.33795e-06
1.33786e-06
1.33781e-06
1.33791e-06
1.33936e-06
1.33953e-06
1.33943e-06
1.33748e-06
1.335e-06
1.335e-06
1.335e-06
1.335e-06
1.33755e-06
1.33816e-06
1.33795e-06
1.335e-06
1.335e-06
1.335e-06
1.335e-06
1.335e-06
1.335e-06
1.33807e-06
1.33962e-06
1.33966e-06
1.33786e-06
1.335e-06
1.335e-06
1.335e-06
1.335e-06
1.335e-06
1.335e-06
1.33803e-06
1.33939e-06
1.33955e-06
1.33781e-06
1.335e-06
1.335e-06
1.335e-06
1.335e-06
1.335e-06
1.335e-06
1.338e-06
1.33828e-06
1.33791e-06
1.335e-06
1.335e-06
1.335e-06
1.335e-06
1.335e-06
1.335e-06
1.33806e-06
1.33957e-06
1.33936e-06
1.33755e-06
1.335e-06
1.335e-06
1.335e-06
1.335e-06
1.33767e-06
1.33815e-06
1.33964e-06
1.33953e-06
1.33816e-06
1.33807e-06
1.33803e-06
1.338e-06
1.33806e-06
1.33815e-06
1.33943e-06
1.33962e-06
1.33939e-06
1.33828e-06
1.33957e-06
1.33964e-06
1.32461e-06
1.32449e-06
1.32438e-06
1.3229e-06
1.32281e-06
1.32277e-06
1.32287e-06
1.32431e-06
1.32449e-06
1.32438e-06
1.32243e-06
1.31995e-06
1.31995e-06
1.31995e-06
1.31995e-06
1.32251e-06
1.32312e-06
1.3229e-06
1.31995e-06
1.31995e-06
1.31995e-06
1.31995e-06
1.31995e-06
1.31995e-06
1.32303e-06
1.32458e-06
1.32461e-06
1.32281e-06
1.31995e-06
1.31995e-06
1.31995e-06
1.31995e-06
1.31995e-06
1.31995e-06
1.32298e-06
1.32435e-06
1.32449e-06
1.32277e-06
1.31995e-06
1.31995e-06
1.31995e-06
1.31995e-06
1.31995e-06
1.31995e-06
1.32295e-06
1.32323e-06
1.32287e-06
1.31995e-06
1.31995e-06
1.31995e-06
1.31995e-06
1.31995e-06
1.31995e-06
1.32301e-06
1.32452e-06
1.32431e-06
1.32251e-06
1.31995e-06
1.31995e-06
1.31995e-06
1.31995e-06
1.32262e-06
1.3231e-06
1.3246e-06
1.32449e-06
1.32312e-06
1.32303e-06
1.32298e-06
1.32295e-06
1.32301e-06
1.3231e-06
1.32438e-06
1.32458e-06
1.32435e-06
1.32323e-06
1.32452e-06
1.3246e-06
1.30956e-06
1.30945e-06
1.30934e-06
1.30785e-06
1.30776e-06
1.30772e-06
1.30782e-06
1.30926e-06
1.30944e-06
1.30934e-06
1.30738e-06
1.3049e-06
1.3049e-06
1.3049e-06
1.3049e-06
1.30746e-06
1.30807e-06
1.30785e-06
1.3049e-06
1.3049e-06
1.3049e-06
1.3049e-06
1.3049e-06
1.3049e-06
1.30798e-06
1.30953e-06
1.30956e-06
1.30776e-06
1.3049e-06
1.3049e-06
1.3049e-06
1.3049e-06
1.3049e-06
1.3049e-06
1.30794e-06
1.3093e-06
1.30945e-06
1.30772e-06
1.3049e-06
1.3049e-06
1.3049e-06
1.3049e-06
1.3049e-06
1.3049e-06
1.30791e-06
1.30818e-06
1.30782e-06
1.3049e-06
1.3049e-06
1.3049e-06
1.3049e-06
1.3049e-06
1.3049e-06
1.30796e-06
1.30947e-06
1.30926e-06
1.30746e-06
1.3049e-06
1.3049e-06
1.3049e-06
1.3049e-06
1.30758e-06
1.30805e-06
1.30955e-06
1.30944e-06
1.30807e-06
1.30798e-06
1.30794e-06
1.30791e-06
1.30796e-06
1.30805e-06
1.30934e-06
1.30953e-06
1.3093e-06
1.30818e-06
1.30947e-06
1.30955e-06
1.29452e-06
1.2944e-06
1.29429e-06
1.2928e-06
1.29271e-06
1.29267e-06
1.29277e-06
1.29421e-06
1.29439e-06
1.29429e-06
1.29233e-06
1.28986e-06
1.28986e-06
1.28986e-06
1.28986e-06
1.29241e-06
1.29302e-06
1.2928e-06
1.28986e-06
1.28986e-06
1.28986e-06
1.28986e-06
1.28986e-06
1.28986e-06
1.29293e-06
1.29448e-06
1.29452e-06
1.29271e-06
1.28986e-06
1.28986e-06
1.28986e-06
1.28986e-06
1.28986e-06
1.28986e-06
1.29289e-06
1.29425e-06
1.29439e-06
1.29267e-06
1.28986e-06
1.28986e-06
1.28986e-06
1.28986e-06
1.28986e-06
1.28986e-06
1.29286e-06
1.29313e-06
1.29277e-06
1.28986e-06
1.28986e-06
1.28986e-06
1.28986e-06
1.28986e-06
1.28986e-06
1.29291e-06
1.29443e-06
1.29421e-06
1.29241e-06
1.28986e-06
1.28986e-06
1.28986e-06
1.28986e-06
1.29253e-06
1.29301e-06
1.2945e-06
1.29439e-06
1.29302e-06
1.29293e-06
1.29289e-06
1.29286e-06
1.29291e-06
1.29301e-06
1.29429e-06
1.29448e-06
1.29425e-06
1.29313e-06
1.29443e-06
1.2945e-06
1.27947e-06
1.27935e-06
1.27924e-06
1.27776e-06
1.27767e-06
1.27762e-06
1.27772e-06
1.27917e-06
1.27934e-06
1.27924e-06
1.27729e-06
1.27481e-06
1.27481e-06
1.27481e-06
1.27481e-06
1.27736e-06
1.27797e-06
1.27776e-06
1.27481e-06
1.27481e-06
1.27481e-06
1.27481e-06
1.27481e-06
1.27481e-06
1.27788e-06
1.27943e-06
1.27947e-06
1.27767e-06
1.27481e-06
1.27481e-06
1.27481e-06
1.27481e-06
1.27481e-06
1.27481e-06
1.27784e-06
1.2792e-06
1.27935e-06
1.27762e-06
1.27481e-06
1.27481e-06
1.27481e-06
1.27481e-06
1.27481e-06
1.27481e-06
1.27781e-06
1.27808e-06
1.27772e-06
1.27481e-06
1.27481e-06
1.27481e-06
1.27481e-06
1.27481e-06
1.27481e-06
1.27787e-06
1.27938e-06
1.27917e-06
1.27736e-06
1.27481e-06
1.27481e-06
1.27481e-06
1.27481e-06
1.27748e-06
1.27796e-06
1.27945e-06
1.27934e-06
1.27797e-06
1.27788e-06
1.27784e-06
1.27781e-06
1.27787e-06
1.27796e-06
1.27924e-06
1.27943e-06
1.2792e-06
1.27809e-06
1.27938e-06
1.27945e-06
1.26442e-06
1.2643e-06
1.26419e-06
1.26271e-06
1.26262e-06
1.26258e-06
1.26268e-06
1.26412e-06
1.2643e-06
1.26419e-06
1.26224e-06
1.25976e-06
1.25976e-06
1.25976e-06
1.25976e-06
1.26231e-06
1.26293e-06
1.26271e-06
1.25976e-06
1.25976e-06
1.25976e-06
1.25976e-06
1.25976e-06
1.25976e-06
1.26283e-06
1.26439e-06
1.26442e-06
1.26262e-06
1.25976e-06
1.25976e-06
1.25976e-06
1.25976e-06
1.25976e-06
1.25976e-06
1.26279e-06
1.26416e-06
1.2643e-06
1.26258e-06
1.25976e-06
1.25976e-06
1.25976e-06
1.25976e-06
1.25976e-06
1.25976e-06
1.26276e-06
1.26304e-06
1.26268e-06
1.25976e-06
1.25976e-06
1.25976e-06
1.25976e-06
1.25976e-06
1.25976e-06
1.26282e-06
1.26433e-06
1.26412e-06
1.26232e-06
1.25976e-06
1.25976e-06
1.25976e-06
1.25976e-06
1.26243e-06
1.26291e-06
1.26441e-06
1.2643e-06
1.26293e-06
1.26283e-06
1.26279e-06
1.26276e-06
1.26282e-06
1.26291e-06
1.26419e-06
1.26439e-06
1.26416e-06
1.26304e-06
1.26433e-06
1.26441e-06
1.24937e-06
1.24926e-06
1.24914e-06
1.24766e-06
1.24757e-06
1.24753e-06
1.24763e-06
1.24907e-06
1.24925e-06
1.24914e-06
1.24719e-06
1.24471e-06
1.24471e-06
1.24471e-06
1.24471e-06
1.24727e-06
1.24788e-06
1.24766e-06
1.24471e-06
1.24471e-06
1.24471e-06
1.24471e-06
1.24471e-06
1.24471e-06
1.24779e-06
1.24934e-06
1.24937e-06
1.24757e-06
1.24471e-06
1.24471e-06
1.24471e-06
1.24471e-06
1.24471e-06
1.24471e-06
1.24774e-06
1.24911e-06
1.24926e-06
1.24753e-06
1.24471e-06
1.24471e-06
1.24471e-06
1.24471e-06
1.24471e-06
1.24471e-06
1.24771e-06
1.24799e-06
1.24763e-06
1.24471e-06
1.24471e-06
1.24471e-06
1.24471e-06
1.24471e-06
1.24471e-06
1.24777e-06
1.24928e-06
1.24907e-06
1.24727e-06
1.24471e-06
1.24471e-06
1.24471e-06
1.24471e-06
1.24738e-06
1.24786e-06
1.24936e-06
1.24925e-06
1.24788e-06
1.24779e-06
1.24774e-06
1.24771e-06
1.24777e-06
1.24786e-06
1.24914e-06
1.24934e-06
1.24911e-06
1.24799e-06
1.24928e-06
1.24936e-06
1.23432e-06
1.23421e-06
1.2341e-06
1.23261e-06
1.23252e-06
1.23248e-06
1.23258e-06
1.23402e-06
1.2342e-06
1.2341e-06
1.23214e-06
1.22967e-06
1.22967e-06
1.22967e-06
1.22967e-06
1.23222e-06
1.23283e-06
1.23261e-06
1.22967e-06
1.22967e-06
1.22967e-06
1.22967e-06
1.22967e-06
1.22967e-06
1.23274e-06
1.23429e-06
1.23433e-06
1.23252e-06
1.22967e-06
1.22967e-06
1.22967e-06
1.22967e-06
1.22967e-06
1.22967e-06
1.2327e-06
1.23406e-06
1.23421e-06
1.23248e-06
1.22967e-06
1.22967e-06
1.22967e-06
1.22967e-06
1.22967e-06
1.22967e-06
1.23267e-06
1.23294e-06
1.23258e-06
1.22967e-06
1.22967e-06
1.22967e-06
1.22967e-06
1.22967e-06
1.22967e-06
1.23272e-06
1.23423e-06
1.23402e-06
1.23222e-06
1.22966e-06
1.22967e-06
1.22967e-06
1.22967e-06
1.23234e-06
1.23281e-06
1.23431e-06
1.2342e-06
1.23283e-06
1.23274e-06
1.2327e-06
1.23267e-06
1.23272e-06
1.23281e-06
1.2341e-06
1.23429e-06
1.23406e-06
1.23294e-06
1.23423e-06
1.23431e-06
1.21928e-06
1.21916e-06
1.21905e-06
1.21756e-06
1.21747e-06
1.21743e-06
1.21753e-06
1.21897e-06
1.21915e-06
1.21905e-06
1.2171e-06
1.21462e-06
1.21462e-06
1.21462e-06
1.21462e-06
1.21717e-06
1.21778e-06
1.21756e-06
1.21462e-06
1.21462e-06
1.21462e-06
1.21462e-06
1.21462e-06
1.21462e-06
1.21769e-06
1.21924e-06
1.21928e-06
1.21747e-06
1.21462e-06
1.21462e-06
1.21462e-06
1.21462e-06
1.21462e-06
1.21462e-06
1.21765e-06
1.21901e-06
1.21916e-06
1.21743e-06
1.21462e-06
1.21462e-06
1.21462e-06
1.21462e-06
1.21462e-06
1.21462e-06
1.21762e-06
1.21789e-06
1.21753e-06
1.21462e-06
1.21462e-06
1.21462e-06
1.21462e-06
1.21462e-06
1.21462e-06
1.21768e-06
1.21919e-06
1.21897e-06
1.21717e-06
1.21462e-06
1.21462e-06
1.21462e-06
1.21462e-06
1.21729e-06
1.21777e-06
1.21926e-06
1.21915e-06
1.21778e-06
1.21769e-06
1.21765e-06
1.21762e-06
1.21767e-06
1.21777e-06
1.21905e-06
1.21924e-06
1.21901e-06
1.21789e-06
1.21919e-06
1.21926e-06
1.20423e-06
1.20411e-06
1.204e-06
1.20252e-06
1.20243e-06
1.20238e-06
1.20248e-06
1.20393e-06
1.2041e-06
1.204e-06
1.20205e-06
1.19957e-06
1.19957e-06
1.19957e-06
1.19957e-06
1.20212e-06
1.20273e-06
1.20252e-06
1.19957e-06
1.19957e-06
1.19957e-06
1.19957e-06
1.19957e-06
1.19957e-06
1.20264e-06
1.20419e-06
1.20423e-06
1.20243e-06
1.19957e-06
1.19957e-06
1.19957e-06
1.19957e-06
1.19957e-06
1.19957e-06
1.2026e-06
1.20396e-06
1.20411e-06
1.20238e-06
1.19957e-06
1.19957e-06
1.19957e-06
1.19957e-06
1.19957e-06
1.19957e-06
1.20257e-06
1.20285e-06
1.20248e-06
1.19957e-06
1.19957e-06
1.19957e-06
1.19957e-06
1.19957e-06
1.19957e-06
1.20263e-06
1.20414e-06
1.20393e-06
1.20212e-06
1.19957e-06
1.19957e-06
1.19957e-06
1.19957e-06
1.20224e-06
1.20272e-06
1.20421e-06
1.2041e-06
1.20273e-06
1.20264e-06
1.2026e-06
1.20257e-06
1.20263e-06
1.20272e-06
1.204e-06
1.20419e-06
1.20397e-06
1.20285e-06
1.20414e-06
1.20421e-06
1.18918e-06
1.18907e-06
1.18895e-06
1.18747e-06
1.18738e-06
1.18734e-06
1.18744e-06
1.18888e-06
1.18906e-06
1.18895e-06
1.187e-06
1.18452e-06
1.18452e-06
1.18452e-06
1.18452e-06
1.18708e-06
1.18769e-06
1.18747e-06
1.18452e-06
1.18452e-06
1.18452e-06
1.18452e-06
1.18452e-06
1.18452e-06
1.1876e-06
1.18915e-06
1.18918e-06
1.18738e-06
1.18452e-06
1.18452e-06
1.18452e-06
1.18452e-06
1.18452e-06
1.18452e-06
1.18755e-06
1.18892e-06
1.18907e-06
1.18734e-06
1.18452e-06
1.18452e-06
1.18452e-06
1.18452e-06
1.18452e-06
1.18452e-06
1.18752e-06
1.1878e-06
1.18744e-06
1.18452e-06
1.18452e-06
1.18452e-06
1.18452e-06
1.18452e-06
1.18452e-06
1.18758e-06
1.18909e-06
1.18888e-06
1.18708e-06
1.18452e-06
1.18452e-06
1.18452e-06
1.18452e-06
1.18719e-06
1.18767e-06
1.18917e-06
1.18906e-06
1.18769e-06
1.1876e-06
1.18755e-06
1.18752e-06
1.18758e-06
1.18767e-06
1.18895e-06
1.18915e-06
1.18892e-06
1.1878e-06
1.18909e-06
1.18917e-06
1.17413e-06
1.17402e-06
1.17391e-06
1.17242e-06
1.17233e-06
1.17229e-06
1.17239e-06
1.17383e-06
1.17401e-06
1.17391e-06
1.17195e-06
1.16947e-06
1.16947e-06
1.16947e-06
1.16947e-06
1.17203e-06
1.17264e-06
1.17242e-06
1.16947e-06
1.16948e-06
1.16948e-06
1.16948e-06
1.16948e-06
1.16947e-06
1.17255e-06
1.1741e-06
1.17413e-06
1.17233e-06
1.16948e-06
1.16948e-06
1.16948e-06
1.16948e-06
1.16948e-06
1.16947e-06
1.17251e-06
1.17387e-06
1.17402e-06
1.17229e-06
1.16948e-06
1.16948e-06
1.16948e-06
1.16948e-06
1.16947e-06
1.16947e-06
1.17248e-06
1.17275e-06
1.17239e-06
1.16948e-06
1.16948e-06
1.16948e-06
1.16947e-06
1.16947e-06
1.16947e-06
1.17253e-06
1.17404e-06
1.17383e-06
1.17203e-06
1.16948e-06
1.16947e-06
1.16948e-06
1.16947e-06
1.17215e-06
1.17262e-06
1.17412e-06
1.17401e-06
1.17264e-06
1.17255e-06
1.17251e-06
1.17248e-06
1.17253e-06
1.17262e-06
1.17391e-06
1.1741e-06
1.17387e-06
1.17275e-06
1.17405e-06
1.17412e-06
1.15909e-06
1.15897e-06
1.15886e-06
1.15737e-06
1.15728e-06
1.15724e-06
1.15734e-06
1.15878e-06
1.15896e-06
1.15886e-06
1.1569e-06
1.15443e-06
1.15443e-06
1.15443e-06
1.15443e-06
1.15698e-06
1.15759e-06
1.15737e-06
1.15443e-06
1.15443e-06
1.15443e-06
1.15443e-06
1.15443e-06
1.15443e-06
1.1575e-06
1.15905e-06
1.15909e-06
1.15728e-06
1.15443e-06
1.15443e-06
1.15443e-06
1.15443e-06
1.15443e-06
1.15443e-06
1.15746e-06
1.15882e-06
1.15897e-06
1.15724e-06
1.15443e-06
1.15443e-06
1.15443e-06
1.15443e-06
1.15443e-06
1.15443e-06
1.15743e-06
1.1577e-06
1.15734e-06
1.15443e-06
1.15443e-06
1.15443e-06
1.15443e-06
1.15443e-06
1.15443e-06
1.15748e-06
1.159e-06
1.15878e-06
1.15698e-06
1.15443e-06
1.15443e-06
1.15443e-06
1.15443e-06
1.1571e-06
1.15758e-06
1.15907e-06
1.15896e-06
1.15759e-06
1.1575e-06
1.15746e-06
1.15743e-06
1.15748e-06
1.15758e-06
1.15886e-06
1.15905e-06
1.15882e-06
1.1577e-06
1.159e-06
1.15907e-06
1.14404e-06
1.14392e-06
1.14381e-06
1.14233e-06
1.14224e-06
1.14219e-06
1.14229e-06
1.14374e-06
1.14391e-06
1.14381e-06
1.14186e-06
1.13938e-06
1.13938e-06
1.13938e-06
1.13938e-06
1.14193e-06
1.14254e-06
1.14233e-06
1.13938e-06
1.13938e-06
1.13938e-06
1.13938e-06
1.13938e-06
1.13938e-06
1.14245e-06
1.144e-06
1.14404e-06
1.14224e-06
1.13938e-06
1.13938e-06
1.13938e-06
1.13938e-06
1.13938e-06
1.13938e-06
1.14241e-06
1.14377e-06
1.14392e-06
1.14219e-06
1.13938e-06
1.13938e-06
1.13938e-06
1.13938e-06
1.13938e-06
1.13938e-06
1.14238e-06
1.14265e-06
1.14229e-06
1.13938e-06
1.13938e-06
1.13938e-06
1.13938e-06
1.13938e-06
1.13938e-06
1.14244e-06
1.14395e-06
1.14374e-06
1.14193e-06
1.13938e-06
1.13938e-06
1.13938e-06
1.13938e-06
1.14205e-06
1.14253e-06
1.14402e-06
1.14391e-06
1.14254e-06
1.14245e-06
1.14241e-06
1.14238e-06
1.14244e-06
1.14253e-06
1.14381e-06
1.144e-06
1.14377e-06
1.14266e-06
1.14395e-06
1.14402e-06
1.12899e-06
1.12887e-06
1.12876e-06
1.12728e-06
1.12719e-06
1.12714e-06
1.12724e-06
1.12869e-06
1.12886e-06
1.12876e-06
1.12681e-06
1.12433e-06
1.12433e-06
1.12433e-06
1.12433e-06
1.12688e-06
1.12749e-06
1.12728e-06
1.12433e-06
1.12433e-06
1.12433e-06
1.12433e-06
1.12433e-06
1.12433e-06
1.1274e-06
1.12895e-06
1.12899e-06
1.12719e-06
1.12433e-06
1.12433e-06
1.12433e-06
1.12433e-06
1.12433e-06
1.12433e-06
1.12736e-06
1.12872e-06
1.12887e-06
1.12714e-06
1.12433e-06
1.12433e-06
1.12433e-06
1.12433e-06
1.12433e-06
1.12433e-06
1.12733e-06
1.12761e-06
1.12724e-06
1.12433e-06
1.12433e-06
1.12433e-06
1.12433e-06
1.12433e-06
1.12433e-06
1.12739e-06
1.1289e-06
1.12869e-06
1.12688e-06
1.12433e-06
1.12433e-06
1.12433e-06
1.12433e-06
1.127e-06
1.12748e-06
1.12897e-06
1.12886e-06
1.12749e-06
1.1274e-06
1.12736e-06
1.12733e-06
1.12739e-06
1.12748e-06
1.12876e-06
1.12895e-06
1.12872e-06
1.12761e-06
1.1289e-06
1.12897e-06
1.11394e-06
1.11382e-06
1.11371e-06
1.11223e-06
1.11214e-06
1.1121e-06
1.1122e-06
1.11364e-06
1.11382e-06
1.11371e-06
1.11176e-06
1.10928e-06
1.10928e-06
1.10928e-06
1.10928e-06
1.11184e-06
1.11245e-06
1.11223e-06
1.10928e-06
1.10928e-06
1.10928e-06
1.10928e-06
1.10928e-06
1.10928e-06
1.11236e-06
1.11391e-06
1.11394e-06
1.11214e-06
1.10928e-06
1.10928e-06
1.10928e-06
1.10928e-06
1.10928e-06
1.10928e-06
1.11231e-06
1.11368e-06
1.11382e-06
1.1121e-06
1.10928e-06
1.10928e-06
1.10928e-06
1.10928e-06
1.10928e-06
1.10928e-06
1.11228e-06
1.11256e-06
1.1122e-06
1.10928e-06
1.10928e-06
1.10928e-06
1.10928e-06
1.10928e-06
1.10928e-06
1.11234e-06
1.11385e-06
1.11364e-06
1.11184e-06
1.10928e-06
1.10928e-06
1.10928e-06
1.10928e-06
1.11195e-06
1.11243e-06
1.11393e-06
1.11382e-06
1.11245e-06
1.11236e-06
1.11231e-06
1.11228e-06
1.11234e-06
1.11243e-06
1.11371e-06
1.11391e-06
1.11368e-06
1.11256e-06
1.11385e-06
1.11393e-06
1.09889e-06
1.09878e-06
1.09867e-06
1.09718e-06
1.09709e-06
1.09705e-06
1.09715e-06
1.09859e-06
1.09877e-06
1.09867e-06
1.09671e-06
1.09423e-06
1.09423e-06
1.09423e-06
1.09423e-06
1.09679e-06
1.0974e-06
1.09718e-06
1.09423e-06
1.09423e-06
1.09423e-06
1.09423e-06
1.09423e-06
1.09423e-06
1.09731e-06
1.09886e-06
1.09889e-06
1.09709e-06
1.09423e-06
1.09423e-06
1.09423e-06
1.09423e-06
1.09423e-06
1.09423e-06
1.09727e-06
1.09863e-06
1.09878e-06
1.09705e-06
1.09423e-06
1.09423e-06
1.09423e-06
1.09423e-06
1.09423e-06
1.09423e-06
1.09724e-06
1.09751e-06
1.09715e-06
1.09423e-06
1.09423e-06
1.09423e-06
1.09423e-06
1.09423e-06
1.09423e-06
1.09729e-06
1.0988e-06
1.09859e-06
1.09679e-06
1.09423e-06
1.09423e-06
1.09423e-06
1.09423e-06
1.09691e-06
1.09738e-06
1.09888e-06
1.09877e-06
1.0974e-06
1.09731e-06
1.09727e-06
1.09724e-06
1.09729e-06
1.09738e-06
1.09867e-06
1.09886e-06
1.09863e-06
1.09751e-06
1.0988e-06
1.09888e-06
1.08385e-06
1.08373e-06
1.08362e-06
1.08213e-06
1.08204e-06
1.082e-06
1.0821e-06
1.08354e-06
1.08372e-06
1.08362e-06
1.08166e-06
1.07919e-06
1.07919e-06
1.07919e-06
1.07919e-06
1.08174e-06
1.08235e-06
1.08213e-06
1.07919e-06
1.07919e-06
1.07919e-06
1.07919e-06
1.07919e-06
1.07919e-06
1.08226e-06
1.08381e-06
1.08385e-06
1.08204e-06
1.07919e-06
1.07919e-06
1.07919e-06
1.07919e-06
1.07919e-06
1.07919e-06
1.08222e-06
1.08358e-06
1.08373e-06
1.082e-06
1.07919e-06
1.07919e-06
1.07919e-06
1.07919e-06
1.07919e-06
1.07919e-06
1.08219e-06
1.08246e-06
1.0821e-06
1.07919e-06
1.07919e-06
1.07919e-06
1.07919e-06
1.07919e-06
1.07919e-06
1.08224e-06
1.08376e-06
1.08354e-06
1.08174e-06
1.07919e-06
1.07919e-06
1.07919e-06
1.07919e-06
1.08186e-06
1.08234e-06
1.08383e-06
1.08372e-06
1.08235e-06
1.08226e-06
1.08222e-06
1.08219e-06
1.08224e-06
1.08234e-06
1.08362e-06
1.08381e-06
1.08358e-06
1.08246e-06
1.08376e-06
1.08383e-06
1.0688e-06
1.06868e-06
1.06857e-06
1.06709e-06
1.067e-06
1.06695e-06
1.06705e-06
1.0685e-06
1.06867e-06
1.06857e-06
1.06662e-06
1.06414e-06
1.06414e-06
1.06414e-06
1.06414e-06
1.06669e-06
1.0673e-06
1.06709e-06
1.06414e-06
1.06414e-06
1.06414e-06
1.06414e-06
1.06414e-06
1.06414e-06
1.06721e-06
1.06876e-06
1.0688e-06
1.067e-06
1.06414e-06
1.06414e-06
1.06414e-06
1.06414e-06
1.06414e-06
1.06414e-06
1.06717e-06
1.06853e-06
1.06868e-06
1.06695e-06
1.06414e-06
1.06414e-06
1.06414e-06
1.06414e-06
1.06414e-06
1.06414e-06
1.06714e-06
1.06742e-06
1.06705e-06
1.06414e-06
1.06414e-06
1.06414e-06
1.06414e-06
1.06414e-06
1.06414e-06
1.0672e-06
1.06871e-06
1.0685e-06
1.06669e-06
1.06414e-06
1.06414e-06
1.06414e-06
1.06414e-06
1.06681e-06
1.06729e-06
1.06878e-06
1.06867e-06
1.0673e-06
1.06721e-06
1.06717e-06
1.06714e-06
1.0672e-06
1.06729e-06
1.06857e-06
1.06876e-06
1.06853e-06
1.06742e-06
1.06871e-06
1.06878e-06
1.05375e-06
1.05364e-06
1.05353e-06
1.05204e-06
1.05195e-06
1.05191e-06
1.05201e-06
1.05345e-06
1.05363e-06
1.05353e-06
1.05157e-06
1.04909e-06
1.04909e-06
1.04909e-06
1.04909e-06
1.05165e-06
1.05226e-06
1.05204e-06
1.04909e-06
1.04909e-06
1.04909e-06
1.04909e-06
1.04909e-06
1.04909e-06
1.05217e-06
1.05372e-06
1.05375e-06
1.05195e-06
1.04909e-06
1.04909e-06
1.04909e-06
1.04909e-06
1.04909e-06
1.04909e-06
1.05212e-06
1.05349e-06
1.05364e-06
1.05191e-06
1.04909e-06
1.04909e-06
1.04909e-06
1.04909e-06
1.04909e-06
1.04909e-06
1.0521e-06
1.05237e-06
1.05201e-06
1.04909e-06
1.04909e-06
1.04909e-06
1.04909e-06
1.04909e-06
1.04909e-06
1.05215e-06
1.05366e-06
1.05345e-06
1.05165e-06
1.04909e-06
1.04909e-06
1.04909e-06
1.04909e-06
1.05176e-06
1.05224e-06
1.05374e-06
1.05363e-06
1.05226e-06
1.05217e-06
1.05212e-06
1.0521e-06
1.05215e-06
1.05224e-06
1.05353e-06
1.05372e-06
1.05349e-06
1.05237e-06
1.05366e-06
1.05374e-06
1.03871e-06
1.03859e-06
1.03848e-06
1.03699e-06
1.0369e-06
1.03686e-06
1.03696e-06
1.0384e-06
1.03858e-06
1.03848e-06
1.03653e-06
1.03405e-06
1.03405e-06
1.03405e-06
1.03405e-06
1.0366e-06
1.03721e-06
1.03699e-06
1.03405e-06
1.03405e-06
1.03405e-06
1.03405e-06
1.03405e-06
1.03405e-06
1.03712e-06
1.03867e-06
1.03871e-06
1.0369e-06
1.03405e-06
1.03405e-06
1.03405e-06
1.03405e-06
1.03405e-06
1.03405e-06
1.03708e-06
1.03844e-06
1.03859e-06
1.03686e-06
1.03405e-06
1.03405e-06
1.03405e-06
1.03405e-06
1.03405e-06
1.03405e-06
1.03705e-06
1.03732e-06
1.03696e-06
1.03405e-06
1.03405e-06
1.03405e-06
1.03405e-06
1.03405e-06
1.03405e-06
1.03711e-06
1.03862e-06
1.0384e-06
1.0366e-06
1.03405e-06
1.03405e-06
1.03405e-06
1.03405e-06
1.03672e-06
1.0372e-06
1.03869e-06
1.03858e-06
1.03721e-06
1.03712e-06
1.03708e-06
1.03705e-06
1.03711e-06
1.0372e-06
1.03848e-06
1.03867e-06
1.03844e-06
1.03732e-06
1.03862e-06
1.03869e-06
1.02366e-06
1.02354e-06
1.02343e-06
1.02195e-06
1.02186e-06
1.02182e-06
1.02192e-06
1.02336e-06
1.02354e-06
1.02343e-06
1.02148e-06
1.019e-06
1.019e-06
1.019e-06
1.019e-06
1.02156e-06
1.02217e-06
1.02195e-06
1.019e-06
1.019e-06
1.019e-06
1.019e-06
1.019e-06
1.019e-06
1.02208e-06
1.02363e-06
1.02366e-06
1.02186e-06
1.019e-06
1.019e-06
1.019e-06
1.019e-06
1.019e-06
1.019e-06
1.02203e-06
1.0234e-06
1.02354e-06
1.02182e-06
1.019e-06
1.019e-06
1.019e-06
1.019e-06
1.019e-06
1.019e-06
1.022e-06
1.02228e-06
1.02192e-06
1.019e-06
1.019e-06
1.019e-06
1.019e-06
1.019e-06
1.019e-06
1.02206e-06
1.02357e-06
1.02336e-06
1.02156e-06
1.019e-06
1.019e-06
1.019e-06
1.019e-06
1.02167e-06
1.02215e-06
1.02365e-06
1.02354e-06
1.02217e-06
1.02208e-06
1.02203e-06
1.022e-06
1.02206e-06
1.02215e-06
1.02343e-06
1.02363e-06
1.0234e-06
1.02228e-06
1.02357e-06
1.02365e-06
1.00861e-06
1.0085e-06
1.00839e-06
1.0069e-06
1.00681e-06
1.00677e-06
1.00687e-06
1.00831e-06
1.00849e-06
1.00839e-06
1.00643e-06
1.00395e-06
1.00395e-06
1.00395e-06
1.00395e-06
1.00651e-06
1.00712e-06
1.0069e-06
1.00395e-06
1.00395e-06
1.00395e-06
1.00395e-06
1.00396e-06
1.00395e-06
1.00703e-06
1.00858e-06
1.00861e-06
1.00681e-06
1.00396e-06
1.00395e-06
1.00395e-06
1.00395e-06
1.00396e-06
1.00395e-06
1.00699e-06
1.00835e-06
1.00849e-06
1.00677e-06
1.00395e-06
1.00396e-06
1.00396e-06
1.00396e-06
1.00396e-06
1.00395e-06
1.00696e-06
1.00723e-06
1.00687e-06
1.00395e-06
1.00396e-06
1.00396e-06
1.00396e-06
1.00396e-06
1.00395e-06
1.00701e-06
1.00852e-06
1.00831e-06
1.00651e-06
1.00396e-06
1.00396e-06
1.00396e-06
1.00396e-06
1.00663e-06
1.0071e-06
1.0086e-06
1.00849e-06
1.00712e-06
1.00703e-06
1.00699e-06
1.00696e-06
1.00701e-06
1.0071e-06
1.00839e-06
1.00858e-06
1.00835e-06
1.00723e-06
1.00852e-06
1.0086e-06
9.93567e-07
9.9345e-07
9.9334e-07
9.91855e-07
9.91765e-07
9.91723e-07
9.91823e-07
9.93265e-07
9.93442e-07
9.93339e-07
9.91386e-07
9.88908e-07
9.88908e-07
9.88908e-07
9.88908e-07
9.91462e-07
9.92072e-07
9.91855e-07
9.88908e-07
9.88908e-07
9.88908e-07
9.88908e-07
9.88908e-07
9.88908e-07
9.91982e-07
9.93533e-07
9.93567e-07
9.91765e-07
9.88908e-07
9.88908e-07
9.88908e-07
9.88908e-07
9.88908e-07
9.88908e-07
9.91939e-07
9.93303e-07
9.93449e-07
9.91723e-07
9.88908e-07
9.88908e-07
9.88908e-07
9.88908e-07
9.88908e-07
9.88908e-07
9.9191e-07
9.92184e-07
9.91823e-07
9.88908e-07
9.88908e-07
9.88908e-07
9.88908e-07
9.88908e-07
9.88908e-07
9.91966e-07
9.93478e-07
9.93265e-07
9.91462e-07
9.88908e-07
9.88908e-07
9.88908e-07
9.88908e-07
9.91579e-07
9.92057e-07
9.93552e-07
9.93442e-07
9.92072e-07
9.91982e-07
9.91939e-07
9.9191e-07
9.91966e-07
9.92057e-07
9.9334e-07
9.93533e-07
9.93303e-07
9.92184e-07
9.93478e-07
9.93552e-07
9.7852e-07
9.78403e-07
9.78293e-07
9.76808e-07
9.76718e-07
9.76676e-07
9.76775e-07
9.78218e-07
9.78395e-07
9.78292e-07
9.76339e-07
9.73861e-07
9.73861e-07
9.73861e-07
9.73861e-07
9.76415e-07
9.77025e-07
9.76807e-07
9.73861e-07
9.73861e-07
9.73861e-07
9.73861e-07
9.73861e-07
9.73861e-07
9.76935e-07
9.78485e-07
9.7852e-07
9.76718e-07
9.73861e-07
9.73861e-07
9.73861e-07
9.73861e-07
9.73861e-07
9.73861e-07
9.76892e-07
9.78255e-07
9.78403e-07
9.76676e-07
9.73861e-07
9.73861e-07
9.73861e-07
9.73861e-07
9.73861e-07
9.73861e-07
9.76863e-07
9.77137e-07
9.76776e-07
9.73861e-07
9.73861e-07
9.73861e-07
9.73861e-07
9.73861e-07
9.73861e-07
9.76919e-07
9.7843e-07
9.78218e-07
9.76415e-07
9.73861e-07
9.73861e-07
9.73861e-07
9.73861e-07
9.76531e-07
9.77009e-07
9.78505e-07
9.78395e-07
9.77025e-07
9.76935e-07
9.76892e-07
9.76863e-07
9.76918e-07
9.7701e-07
9.78293e-07
9.78486e-07
9.78256e-07
9.77137e-07
9.78431e-07
9.78505e-07
9.63473e-07
9.63356e-07
9.63245e-07
9.6176e-07
9.61671e-07
9.61628e-07
9.61728e-07
9.63171e-07
9.63348e-07
9.63245e-07
9.61291e-07
9.58813e-07
9.58814e-07
9.58814e-07
9.58813e-07
9.61368e-07
9.61978e-07
9.6176e-07
9.58813e-07
9.58814e-07
9.58814e-07
9.58814e-07
9.58814e-07
9.58813e-07
9.61888e-07
9.63438e-07
9.63473e-07
9.61671e-07
9.58814e-07
9.58814e-07
9.58814e-07
9.58814e-07
9.58814e-07
9.58814e-07
9.61845e-07
9.63208e-07
9.63356e-07
9.61628e-07
9.58814e-07
9.58814e-07
9.58814e-07
9.58814e-07
9.58814e-07
9.58814e-07
9.61815e-07
9.6209e-07
9.61728e-07
9.58813e-07
9.58814e-07
9.58814e-07
9.58814e-07
9.58814e-07
9.58814e-07
9.61871e-07
9.63383e-07
9.6317e-07
9.61368e-07
9.58814e-07
9.58814e-07
9.58814e-07
9.58814e-07
9.61484e-07
9.61962e-07
9.63458e-07
9.63348e-07
9.61978e-07
9.61888e-07
9.61845e-07
9.61815e-07
9.61871e-07
9.61962e-07
9.63245e-07
9.63438e-07
9.63209e-07
9.6209e-07
9.63383e-07
9.63458e-07