/*--------------------------------*- C++ -*----------------------------------*\
| =========                 |                                                 |
| \\      /  F ield         | OpenFOAM: The Open Source CFD Toolbox           |
|  \\    /   O peration     | Version:  v2012                                 |
|   \\  /    A nd           | Website:  www.openfoam.com                      |
|    \\/     M anipulation  |                                                 |
\*---------------------------------------------------------------------------*/
FoamFile
{
    version     2.0;
    format      ascii;
    class       volScalarField;
    location    "8";
    object      p;
}
// * * * * * * * * * * * * * * * * * * * * * * * * * * * * * * * * * * * * * //

dimensions      [0 2 -2 0 0 0 0];


internalField   nonuniform List<scalar> 
244288
(
1.59435e-06
1.59464e-06
1.5946e-06
1.59443e-06
1.59436e-06
1.59445e-06
1.59461e-06
1.59464e-06
1.59465e-06
1.59441e-06
1.59412e-06
1.59401e-06
1.59415e-06
1.59445e-06
1.59466e-06
1.5946e-06
1.59441e-06
1.59397e-06
1.59358e-06
1.59345e-06
1.59362e-06
1.59403e-06
1.59445e-06
1.59459e-06
1.59443e-06
1.59412e-06
1.59358e-06
1.59315e-06
1.59301e-06
1.59319e-06
1.59365e-06
1.59418e-06
1.59444e-06
1.59435e-06
1.59436e-06
1.59401e-06
1.59345e-06
1.59301e-06
1.59286e-06
1.59305e-06
1.59352e-06
1.59407e-06
1.59437e-06
1.59445e-06
1.59415e-06
1.59362e-06
1.59319e-06
1.59305e-06
1.59323e-06
1.59369e-06
1.59421e-06
1.59446e-06
1.59461e-06
1.59445e-06
1.59403e-06
1.59365e-06
1.59352e-06
1.59369e-06
1.59408e-06
1.59449e-06
1.59461e-06
1.59466e-06
1.59445e-06
1.59418e-06
1.59407e-06
1.5942e-06
1.59449e-06
1.59466e-06
1.59459e-06
1.59444e-06
1.59437e-06
1.59446e-06
1.5946e-06
1.56868e-06
1.56827e-06
1.56798e-06
1.56652e-06
1.56644e-06
1.56644e-06
1.56646e-06
1.56789e-06
1.56805e-06
1.56798e-06
1.56609e-06
1.5635e-06
1.56349e-06
1.56349e-06
1.5635e-06
1.56603e-06
1.5665e-06
1.56652e-06
1.5635e-06
1.56344e-06
1.56347e-06
1.56347e-06
1.56345e-06
1.5635e-06
1.56634e-06
1.56814e-06
1.56868e-06
1.56644e-06
1.56349e-06
1.56347e-06
1.56352e-06
1.56352e-06
1.56347e-06
1.56349e-06
1.56624e-06
1.56788e-06
1.56827e-06
1.56644e-06
1.56349e-06
1.56347e-06
1.56352e-06
1.56352e-06
1.56348e-06
1.5635e-06
1.5662e-06
1.56672e-06
1.56645e-06
1.5635e-06
1.56344e-06
1.56347e-06
1.56347e-06
1.56345e-06
1.5635e-06
1.56628e-06
1.56799e-06
1.56789e-06
1.56603e-06
1.5635e-06
1.56349e-06
1.56349e-06
1.5635e-06
1.5658e-06
1.56649e-06
1.56819e-06
1.56805e-06
1.5665e-06
1.56634e-06
1.56624e-06
1.5662e-06
1.56627e-06
1.56648e-06
1.56823e-06
1.56814e-06
1.56787e-06
1.56672e-06
1.56798e-06
1.56818e-06
1.55192e-06
1.55177e-06
1.55172e-06
1.55007e-06
1.54998e-06
1.54995e-06
1.55002e-06
1.55157e-06
1.55182e-06
1.55172e-06
1.54965e-06
1.54681e-06
1.5468e-06
1.5468e-06
1.54681e-06
1.5496e-06
1.55018e-06
1.55007e-06
1.54681e-06
1.54678e-06
1.54678e-06
1.54678e-06
1.54678e-06
1.54681e-06
1.55e-06
1.5518e-06
1.55191e-06
1.54998e-06
1.5468e-06
1.54678e-06
1.54679e-06
1.54679e-06
1.54678e-06
1.5468e-06
1.54987e-06
1.55151e-06
1.55177e-06
1.54995e-06
1.5468e-06
1.54678e-06
1.54679e-06
1.54679e-06
1.54678e-06
1.5468e-06
1.54982e-06
1.55029e-06
1.55002e-06
1.54681e-06
1.54678e-06
1.54678e-06
1.54678e-06
1.54678e-06
1.54681e-06
1.54993e-06
1.55167e-06
1.55157e-06
1.54959e-06
1.54681e-06
1.5468e-06
1.5468e-06
1.54681e-06
1.54943e-06
1.55012e-06
1.55185e-06
1.55182e-06
1.55018e-06
1.54999e-06
1.54987e-06
1.54982e-06
1.54992e-06
1.55012e-06
1.55183e-06
1.5518e-06
1.55151e-06
1.55029e-06
1.55166e-06
1.55185e-06
1.53536e-06
1.53521e-06
1.53514e-06
1.53347e-06
1.53338e-06
1.53334e-06
1.53343e-06
1.53499e-06
1.53524e-06
1.53514e-06
1.53302e-06
1.53017e-06
1.53017e-06
1.53017e-06
1.53017e-06
1.53299e-06
1.53361e-06
1.53347e-06
1.53017e-06
1.53017e-06
1.53017e-06
1.53017e-06
1.53017e-06
1.53017e-06
1.53344e-06
1.53524e-06
1.53536e-06
1.53338e-06
1.53017e-06
1.53017e-06
1.53017e-06
1.53017e-06
1.53017e-06
1.53017e-06
1.53334e-06
1.53496e-06
1.53521e-06
1.53334e-06
1.53017e-06
1.53017e-06
1.53017e-06
1.53017e-06
1.53017e-06
1.53017e-06
1.53331e-06
1.53374e-06
1.53343e-06
1.53017e-06
1.53017e-06
1.53017e-06
1.53017e-06
1.53017e-06
1.53017e-06
1.53339e-06
1.53511e-06
1.53499e-06
1.53298e-06
1.53017e-06
1.53017e-06
1.53017e-06
1.53017e-06
1.53289e-06
1.53356e-06
1.53528e-06
1.53524e-06
1.53361e-06
1.53344e-06
1.53335e-06
1.53331e-06
1.53339e-06
1.53356e-06
1.53521e-06
1.53524e-06
1.53496e-06
1.53374e-06
1.53511e-06
1.53528e-06
1.51875e-06
1.51861e-06
1.51853e-06
1.51686e-06
1.51676e-06
1.51673e-06
1.51682e-06
1.51838e-06
1.51863e-06
1.51853e-06
1.5164e-06
1.51355e-06
1.51355e-06
1.51355e-06
1.51355e-06
1.51637e-06
1.517e-06
1.51686e-06
1.51355e-06
1.51355e-06
1.51355e-06
1.51355e-06
1.51355e-06
1.51355e-06
1.51684e-06
1.51863e-06
1.51875e-06
1.51676e-06
1.51355e-06
1.51355e-06
1.51355e-06
1.51355e-06
1.51355e-06
1.51355e-06
1.51675e-06
1.51836e-06
1.51861e-06
1.51673e-06
1.51355e-06
1.51355e-06
1.51355e-06
1.51355e-06
1.51355e-06
1.51355e-06
1.51671e-06
1.51714e-06
1.51682e-06
1.51355e-06
1.51355e-06
1.51355e-06
1.51355e-06
1.51355e-06
1.51355e-06
1.51679e-06
1.51851e-06
1.51838e-06
1.51637e-06
1.51355e-06
1.51355e-06
1.51355e-06
1.51355e-06
1.51629e-06
1.51696e-06
1.51868e-06
1.51863e-06
1.517e-06
1.51684e-06
1.51675e-06
1.51671e-06
1.51679e-06
1.51696e-06
1.51859e-06
1.51863e-06
1.51836e-06
1.51714e-06
1.51851e-06
1.51868e-06
1.50214e-06
1.502e-06
1.50192e-06
1.50025e-06
1.50015e-06
1.50011e-06
1.5002e-06
1.50177e-06
1.50202e-06
1.50192e-06
1.49978e-06
1.49693e-06
1.49693e-06
1.49693e-06
1.49693e-06
1.49975e-06
1.50039e-06
1.50025e-06
1.49693e-06
1.49693e-06
1.49693e-06
1.49693e-06
1.49693e-06
1.49693e-06
1.50023e-06
1.50202e-06
1.50214e-06
1.50015e-06
1.49693e-06
1.49693e-06
1.49693e-06
1.49693e-06
1.49693e-06
1.49693e-06
1.50014e-06
1.50175e-06
1.502e-06
1.50011e-06
1.49693e-06
1.49693e-06
1.49693e-06
1.49693e-06
1.49693e-06
1.49693e-06
1.5001e-06
1.50053e-06
1.5002e-06
1.49693e-06
1.49693e-06
1.49693e-06
1.49693e-06
1.49693e-06
1.49693e-06
1.50018e-06
1.5019e-06
1.50177e-06
1.49975e-06
1.49693e-06
1.49693e-06
1.49693e-06
1.49693e-06
1.49968e-06
1.50034e-06
1.50207e-06
1.50202e-06
1.50039e-06
1.50023e-06
1.50014e-06
1.5001e-06
1.50018e-06
1.50034e-06
1.50198e-06
1.50202e-06
1.50175e-06
1.50053e-06
1.5019e-06
1.50207e-06
1.48553e-06
1.48539e-06
1.4853e-06
1.48363e-06
1.48353e-06
1.4835e-06
1.48359e-06
1.48516e-06
1.4854e-06
1.4853e-06
1.48317e-06
1.48032e-06
1.48032e-06
1.48032e-06
1.48032e-06
1.48313e-06
1.48377e-06
1.48363e-06
1.48032e-06
1.48032e-06
1.48032e-06
1.48032e-06
1.48032e-06
1.48032e-06
1.48361e-06
1.4854e-06
1.48553e-06
1.48353e-06
1.48032e-06
1.48032e-06
1.48032e-06
1.48032e-06
1.48032e-06
1.48032e-06
1.48353e-06
1.48513e-06
1.48539e-06
1.4835e-06
1.48032e-06
1.48032e-06
1.48032e-06
1.48032e-06
1.48032e-06
1.48032e-06
1.48349e-06
1.48391e-06
1.48359e-06
1.48032e-06
1.48032e-06
1.48032e-06
1.48032e-06
1.48032e-06
1.48032e-06
1.48357e-06
1.48528e-06
1.48516e-06
1.48314e-06
1.48032e-06
1.48032e-06
1.48032e-06
1.48032e-06
1.48307e-06
1.48373e-06
1.48545e-06
1.4854e-06
1.48377e-06
1.48361e-06
1.48353e-06
1.48349e-06
1.48357e-06
1.48373e-06
1.48536e-06
1.48541e-06
1.48513e-06
1.48391e-06
1.48528e-06
1.48545e-06
1.46891e-06
1.46877e-06
1.46869e-06
1.46702e-06
1.46692e-06
1.46688e-06
1.46697e-06
1.46854e-06
1.46879e-06
1.46869e-06
1.46655e-06
1.4637e-06
1.4637e-06
1.4637e-06
1.4637e-06
1.46652e-06
1.46716e-06
1.46702e-06
1.4637e-06
1.4637e-06
1.4637e-06
1.4637e-06
1.4637e-06
1.4637e-06
1.467e-06
1.46879e-06
1.46891e-06
1.46692e-06
1.4637e-06
1.4637e-06
1.4637e-06
1.4637e-06
1.4637e-06
1.4637e-06
1.46691e-06
1.46852e-06
1.46877e-06
1.46688e-06
1.4637e-06
1.4637e-06
1.4637e-06
1.4637e-06
1.4637e-06
1.4637e-06
1.46687e-06
1.4673e-06
1.46697e-06
1.4637e-06
1.4637e-06
1.4637e-06
1.4637e-06
1.4637e-06
1.4637e-06
1.46695e-06
1.46867e-06
1.46854e-06
1.46652e-06
1.4637e-06
1.4637e-06
1.4637e-06
1.4637e-06
1.46645e-06
1.46711e-06
1.46884e-06
1.46879e-06
1.46716e-06
1.467e-06
1.46691e-06
1.46687e-06
1.46695e-06
1.46711e-06
1.46875e-06
1.46879e-06
1.46852e-06
1.4673e-06
1.46867e-06
1.46884e-06
1.4523e-06
1.45216e-06
1.45207e-06
1.4504e-06
1.4503e-06
1.45027e-06
1.45036e-06
1.45193e-06
1.45217e-06
1.45208e-06
1.44994e-06
1.44709e-06
1.44709e-06
1.44709e-06
1.44709e-06
1.4499e-06
1.45054e-06
1.4504e-06
1.44709e-06
1.44709e-06
1.44709e-06
1.44709e-06
1.44709e-06
1.44709e-06
1.45038e-06
1.45218e-06
1.4523e-06
1.45031e-06
1.44709e-06
1.44709e-06
1.44709e-06
1.44709e-06
1.44709e-06
1.44709e-06
1.4503e-06
1.4519e-06
1.45215e-06
1.45026e-06
1.44709e-06
1.44709e-06
1.44709e-06
1.44709e-06
1.44709e-06
1.44709e-06
1.45026e-06
1.45068e-06
1.45036e-06
1.44709e-06
1.44709e-06
1.44709e-06
1.44709e-06
1.44709e-06
1.44709e-06
1.45034e-06
1.45205e-06
1.45193e-06
1.4499e-06
1.44709e-06
1.44709e-06
1.44709e-06
1.44709e-06
1.44984e-06
1.4505e-06
1.45222e-06
1.45217e-06
1.45054e-06
1.45038e-06
1.4503e-06
1.45026e-06
1.45034e-06
1.4505e-06
1.45213e-06
1.45218e-06
1.4519e-06
1.45068e-06
1.45205e-06
1.45222e-06
1.43568e-06
1.43554e-06
1.43546e-06
1.43379e-06
1.43369e-06
1.43365e-06
1.43374e-06
1.43531e-06
1.43556e-06
1.43546e-06
1.43332e-06
1.43047e-06
1.43047e-06
1.43047e-06
1.43047e-06
1.43329e-06
1.43393e-06
1.43379e-06
1.43047e-06
1.43047e-06
1.43047e-06
1.43047e-06
1.43047e-06
1.43047e-06
1.43377e-06
1.43556e-06
1.43568e-06
1.43369e-06
1.43047e-06
1.43047e-06
1.43047e-06
1.43047e-06
1.43047e-06
1.43047e-06
1.43368e-06
1.43529e-06
1.43554e-06
1.43365e-06
1.43047e-06
1.43047e-06
1.43047e-06
1.43047e-06
1.43047e-06
1.43047e-06
1.43364e-06
1.43407e-06
1.43374e-06
1.43047e-06
1.43047e-06
1.43047e-06
1.43047e-06
1.43047e-06
1.43047e-06
1.43372e-06
1.43544e-06
1.43531e-06
1.43329e-06
1.43047e-06
1.43047e-06
1.43047e-06
1.43047e-06
1.43323e-06
1.43388e-06
1.43561e-06
1.43556e-06
1.43393e-06
1.43377e-06
1.43368e-06
1.43364e-06
1.43372e-06
1.43388e-06
1.43552e-06
1.43556e-06
1.43529e-06
1.43407e-06
1.43544e-06
1.43561e-06
1.41907e-06
1.41893e-06
1.41884e-06
1.41717e-06
1.41707e-06
1.41704e-06
1.41713e-06
1.4187e-06
1.41894e-06
1.41884e-06
1.41671e-06
1.41386e-06
1.41386e-06
1.41386e-06
1.41386e-06
1.41667e-06
1.41731e-06
1.41717e-06
1.41386e-06
1.41386e-06
1.41386e-06
1.41386e-06
1.41386e-06
1.41386e-06
1.41715e-06
1.41895e-06
1.41907e-06
1.41708e-06
1.41386e-06
1.41386e-06
1.41386e-06
1.41386e-06
1.41386e-06
1.41386e-06
1.41707e-06
1.41867e-06
1.41892e-06
1.41704e-06
1.41386e-06
1.41386e-06
1.41386e-06
1.41386e-06
1.41386e-06
1.41386e-06
1.41703e-06
1.41745e-06
1.41713e-06
1.41386e-06
1.41386e-06
1.41386e-06
1.41386e-06
1.41386e-06
1.41386e-06
1.41711e-06
1.41882e-06
1.4187e-06
1.41667e-06
1.41386e-06
1.41386e-06
1.41386e-06
1.41386e-06
1.41661e-06
1.41727e-06
1.41899e-06
1.41894e-06
1.41731e-06
1.41715e-06
1.41707e-06
1.41703e-06
1.41711e-06
1.41727e-06
1.4189e-06
1.41895e-06
1.41867e-06
1.41745e-06
1.41882e-06
1.41899e-06
1.40245e-06
1.40231e-06
1.40223e-06
1.40056e-06
1.40046e-06
1.40042e-06
1.40051e-06
1.40208e-06
1.40233e-06
1.40223e-06
1.40009e-06
1.39724e-06
1.39724e-06
1.39724e-06
1.39724e-06
1.40006e-06
1.4007e-06
1.40056e-06
1.39724e-06
1.39724e-06
1.39724e-06
1.39724e-06
1.39724e-06
1.39724e-06
1.40054e-06
1.40233e-06
1.40245e-06
1.40046e-06
1.39724e-06
1.39724e-06
1.39724e-06
1.39724e-06
1.39724e-06
1.39724e-06
1.40045e-06
1.40206e-06
1.40231e-06
1.40042e-06
1.39724e-06
1.39724e-06
1.39724e-06
1.39724e-06
1.39724e-06
1.39724e-06
1.40041e-06
1.40084e-06
1.40051e-06
1.39724e-06
1.39724e-06
1.39724e-06
1.39724e-06
1.39724e-06
1.39724e-06
1.40049e-06
1.40221e-06
1.40208e-06
1.40006e-06
1.39724e-06
1.39724e-06
1.39724e-06
1.39724e-06
1.4e-06
1.40065e-06
1.40238e-06
1.40233e-06
1.4007e-06
1.40054e-06
1.40045e-06
1.40041e-06
1.40049e-06
1.40065e-06
1.40229e-06
1.40233e-06
1.40206e-06
1.40084e-06
1.40221e-06
1.40238e-06
1.38584e-06
1.3857e-06
1.38561e-06
1.38394e-06
1.38384e-06
1.38381e-06
1.3839e-06
1.38547e-06
1.38571e-06
1.38561e-06
1.38348e-06
1.38063e-06
1.38063e-06
1.38063e-06
1.38063e-06
1.38344e-06
1.38408e-06
1.38394e-06
1.38063e-06
1.38063e-06
1.38063e-06
1.38063e-06
1.38063e-06
1.38063e-06
1.38392e-06
1.38572e-06
1.38584e-06
1.38384e-06
1.38063e-06
1.38063e-06
1.38063e-06
1.38063e-06
1.38063e-06
1.38063e-06
1.38384e-06
1.38544e-06
1.3857e-06
1.38381e-06
1.38063e-06
1.38063e-06
1.38063e-06
1.38063e-06
1.38063e-06
1.38063e-06
1.3838e-06
1.38422e-06
1.3839e-06
1.38063e-06
1.38063e-06
1.38063e-06
1.38063e-06
1.38063e-06
1.38063e-06
1.38388e-06
1.38559e-06
1.38547e-06
1.38344e-06
1.38063e-06
1.38063e-06
1.38063e-06
1.38063e-06
1.38338e-06
1.38404e-06
1.38576e-06
1.38571e-06
1.38408e-06
1.38392e-06
1.38384e-06
1.3838e-06
1.38388e-06
1.38404e-06
1.38567e-06
1.38572e-06
1.38544e-06
1.38422e-06
1.38559e-06
1.38576e-06
1.36922e-06
1.36908e-06
1.369e-06
1.36733e-06
1.36723e-06
1.36719e-06
1.36728e-06
1.36885e-06
1.3691e-06
1.369e-06
1.36686e-06
1.36401e-06
1.36401e-06
1.36401e-06
1.36401e-06
1.36683e-06
1.36747e-06
1.36733e-06
1.36401e-06
1.36401e-06
1.36401e-06
1.36401e-06
1.36401e-06
1.36401e-06
1.36731e-06
1.3691e-06
1.36923e-06
1.36723e-06
1.36401e-06
1.36401e-06
1.36401e-06
1.36401e-06
1.36401e-06
1.36401e-06
1.36722e-06
1.36883e-06
1.36909e-06
1.36719e-06
1.36401e-06
1.36401e-06
1.36401e-06
1.36401e-06
1.36401e-06
1.36401e-06
1.36718e-06
1.36761e-06
1.36728e-06
1.36401e-06
1.36401e-06
1.36401e-06
1.36401e-06
1.36401e-06
1.36401e-06
1.36726e-06
1.36898e-06
1.36885e-06
1.36683e-06
1.36401e-06
1.36401e-06
1.36401e-06
1.36401e-06
1.36677e-06
1.36742e-06
1.36915e-06
1.3691e-06
1.36747e-06
1.36731e-06
1.36722e-06
1.36718e-06
1.36726e-06
1.36742e-06
1.36906e-06
1.3691e-06
1.36883e-06
1.36761e-06
1.36898e-06
1.36915e-06
1.35261e-06
1.35247e-06
1.35238e-06
1.35071e-06
1.35061e-06
1.35058e-06
1.35067e-06
1.35224e-06
1.35248e-06
1.35238e-06
1.35025e-06
1.3474e-06
1.3474e-06
1.3474e-06
1.3474e-06
1.35021e-06
1.35085e-06
1.35071e-06
1.3474e-06
1.3474e-06
1.3474e-06
1.3474e-06
1.3474e-06
1.3474e-06
1.35069e-06
1.35249e-06
1.35261e-06
1.35061e-06
1.3474e-06
1.3474e-06
1.3474e-06
1.3474e-06
1.3474e-06
1.3474e-06
1.35061e-06
1.35221e-06
1.35248e-06
1.35057e-06
1.3474e-06
1.3474e-06
1.3474e-06
1.3474e-06
1.3474e-06
1.3474e-06
1.35057e-06
1.35099e-06
1.35067e-06
1.3474e-06
1.3474e-06
1.3474e-06
1.3474e-06
1.3474e-06
1.3474e-06
1.35065e-06
1.35236e-06
1.35224e-06
1.35021e-06
1.3474e-06
1.3474e-06
1.3474e-06
1.3474e-06
1.35015e-06
1.35081e-06
1.35253e-06
1.35248e-06
1.35085e-06
1.35069e-06
1.35061e-06
1.35057e-06
1.35065e-06
1.35081e-06
1.35244e-06
1.35249e-06
1.35221e-06
1.35099e-06
1.35236e-06
1.35253e-06
1.33599e-06
1.33585e-06
1.33577e-06
1.3341e-06
1.334e-06
1.33396e-06
1.33405e-06
1.33562e-06
1.33587e-06
1.33577e-06
1.33363e-06
1.33078e-06
1.33078e-06
1.33078e-06
1.33078e-06
1.3336e-06
1.33424e-06
1.3341e-06
1.33078e-06
1.33078e-06
1.33078e-06
1.33078e-06
1.33078e-06
1.33078e-06
1.33408e-06
1.33587e-06
1.33599e-06
1.334e-06
1.33078e-06
1.33078e-06
1.33078e-06
1.33078e-06
1.33078e-06
1.33078e-06
1.33399e-06
1.3356e-06
1.33585e-06
1.33396e-06
1.33078e-06
1.33078e-06
1.33078e-06
1.33078e-06
1.33078e-06
1.33078e-06
1.33395e-06
1.33438e-06
1.33405e-06
1.33078e-06
1.33078e-06
1.33078e-06
1.33078e-06
1.33078e-06
1.33078e-06
1.33403e-06
1.33575e-06
1.33562e-06
1.3336e-06
1.33078e-06
1.33078e-06
1.33078e-06
1.33078e-06
1.33354e-06
1.3342e-06
1.33592e-06
1.33587e-06
1.33424e-06
1.33408e-06
1.33399e-06
1.33395e-06
1.33403e-06
1.33419e-06
1.33583e-06
1.33587e-06
1.3356e-06
1.33438e-06
1.33575e-06
1.33592e-06
1.31938e-06
1.31924e-06
1.31915e-06
1.31748e-06
1.31738e-06
1.31735e-06
1.31744e-06
1.31901e-06
1.31925e-06
1.31915e-06
1.31702e-06
1.31417e-06
1.31417e-06
1.31417e-06
1.31417e-06
1.31699e-06
1.31762e-06
1.31748e-06
1.31417e-06
1.31417e-06
1.31417e-06
1.31417e-06
1.31417e-06
1.31417e-06
1.31746e-06
1.31926e-06
1.31938e-06
1.31738e-06
1.31417e-06
1.31417e-06
1.31417e-06
1.31417e-06
1.31417e-06
1.31417e-06
1.31738e-06
1.31898e-06
1.31924e-06
1.31735e-06
1.31417e-06
1.31417e-06
1.31417e-06
1.31417e-06
1.31417e-06
1.31417e-06
1.31734e-06
1.31776e-06
1.31744e-06
1.31417e-06
1.31417e-06
1.31417e-06
1.31417e-06
1.31417e-06
1.31417e-06
1.31742e-06
1.31913e-06
1.31901e-06
1.31698e-06
1.31417e-06
1.31417e-06
1.31417e-06
1.31417e-06
1.31692e-06
1.31758e-06
1.3193e-06
1.31925e-06
1.31762e-06
1.31746e-06
1.31738e-06
1.31734e-06
1.31742e-06
1.31758e-06
1.31921e-06
1.31926e-06
1.31898e-06
1.31776e-06
1.31913e-06
1.3193e-06
1.30276e-06
1.30262e-06
1.30254e-06
1.30087e-06
1.30077e-06
1.30073e-06
1.30082e-06
1.30239e-06
1.30264e-06
1.30254e-06
1.3004e-06
1.29755e-06
1.29755e-06
1.29755e-06
1.29755e-06
1.30037e-06
1.30101e-06
1.30087e-06
1.29755e-06
1.29755e-06
1.29755e-06
1.29755e-06
1.29755e-06
1.29755e-06
1.30085e-06
1.30264e-06
1.30276e-06
1.30077e-06
1.29755e-06
1.29755e-06
1.29755e-06
1.29755e-06
1.29755e-06
1.29755e-06
1.30076e-06
1.30237e-06
1.30262e-06
1.30073e-06
1.29755e-06
1.29755e-06
1.29755e-06
1.29755e-06
1.29755e-06
1.29755e-06
1.30072e-06
1.30115e-06
1.30082e-06
1.29755e-06
1.29755e-06
1.29755e-06
1.29755e-06
1.29755e-06
1.29755e-06
1.3008e-06
1.30252e-06
1.30239e-06
1.30037e-06
1.29755e-06
1.29755e-06
1.29755e-06
1.29755e-06
1.30031e-06
1.30097e-06
1.30269e-06
1.30264e-06
1.30101e-06
1.30085e-06
1.30076e-06
1.30072e-06
1.3008e-06
1.30097e-06
1.30259e-06
1.30264e-06
1.30237e-06
1.30115e-06
1.30252e-06
1.30269e-06
1.28615e-06
1.28601e-06
1.28592e-06
1.28425e-06
1.28415e-06
1.28412e-06
1.28421e-06
1.28578e-06
1.28602e-06
1.28593e-06
1.28379e-06
1.28094e-06
1.28094e-06
1.28094e-06
1.28094e-06
1.28376e-06
1.28439e-06
1.28425e-06
1.28094e-06
1.28094e-06
1.28094e-06
1.28094e-06
1.28094e-06
1.28094e-06
1.28423e-06
1.28603e-06
1.28615e-06
1.28415e-06
1.28094e-06
1.28094e-06
1.28094e-06
1.28094e-06
1.28094e-06
1.28094e-06
1.28415e-06
1.28575e-06
1.28601e-06
1.28412e-06
1.28094e-06
1.28094e-06
1.28094e-06
1.28094e-06
1.28094e-06
1.28094e-06
1.28411e-06
1.28453e-06
1.28421e-06
1.28094e-06
1.28094e-06
1.28094e-06
1.28094e-06
1.28094e-06
1.28094e-06
1.28419e-06
1.2859e-06
1.28578e-06
1.28376e-06
1.28094e-06
1.28094e-06
1.28094e-06
1.28094e-06
1.28369e-06
1.28435e-06
1.28607e-06
1.28602e-06
1.28439e-06
1.28423e-06
1.28415e-06
1.28411e-06
1.28419e-06
1.28435e-06
1.28598e-06
1.28603e-06
1.28575e-06
1.28453e-06
1.28591e-06
1.28607e-06
1.26953e-06
1.26939e-06
1.26931e-06
1.26764e-06
1.26754e-06
1.2675e-06
1.26759e-06
1.26916e-06
1.26941e-06
1.26931e-06
1.26717e-06
1.26432e-06
1.26432e-06
1.26432e-06
1.26432e-06
1.26714e-06
1.26778e-06
1.26764e-06
1.26432e-06
1.26432e-06
1.26432e-06
1.26432e-06
1.26432e-06
1.26432e-06
1.26762e-06
1.26941e-06
1.26953e-06
1.26754e-06
1.26432e-06
1.26432e-06
1.26432e-06
1.26432e-06
1.26432e-06
1.26432e-06
1.26753e-06
1.26914e-06
1.26939e-06
1.2675e-06
1.26432e-06
1.26432e-06
1.26432e-06
1.26432e-06
1.26432e-06
1.26432e-06
1.26749e-06
1.26792e-06
1.26759e-06
1.26432e-06
1.26432e-06
1.26432e-06
1.26432e-06
1.26432e-06
1.26432e-06
1.26757e-06
1.26929e-06
1.26916e-06
1.26714e-06
1.26432e-06
1.26432e-06
1.26432e-06
1.26432e-06
1.26708e-06
1.26774e-06
1.26946e-06
1.26941e-06
1.26778e-06
1.26762e-06
1.26753e-06
1.26749e-06
1.26757e-06
1.26773e-06
1.26936e-06
1.26941e-06
1.26914e-06
1.26792e-06
1.26929e-06
1.26946e-06
1.25292e-06
1.25278e-06
1.25269e-06
1.25102e-06
1.25092e-06
1.25089e-06
1.25098e-06
1.25255e-06
1.25279e-06
1.2527e-06
1.25056e-06
1.24771e-06
1.24771e-06
1.24771e-06
1.24771e-06
1.25053e-06
1.25116e-06
1.25102e-06
1.24771e-06
1.24771e-06
1.24771e-06
1.24771e-06
1.24771e-06
1.24771e-06
1.251e-06
1.2528e-06
1.25292e-06
1.25092e-06
1.24771e-06
1.24771e-06
1.24771e-06
1.24771e-06
1.24771e-06
1.24771e-06
1.25092e-06
1.25252e-06
1.25278e-06
1.25089e-06
1.24771e-06
1.24771e-06
1.24771e-06
1.24771e-06
1.24771e-06
1.24771e-06
1.25088e-06
1.2513e-06
1.25098e-06
1.24771e-06
1.24771e-06
1.24771e-06
1.24771e-06
1.24771e-06
1.24771e-06
1.25096e-06
1.25267e-06
1.25255e-06
1.25053e-06
1.24771e-06
1.24771e-06
1.24771e-06
1.24771e-06
1.25046e-06
1.25112e-06
1.25284e-06
1.25279e-06
1.25116e-06
1.251e-06
1.25092e-06
1.25088e-06
1.25096e-06
1.25112e-06
1.25275e-06
1.2528e-06
1.25252e-06
1.2513e-06
1.25267e-06
1.25284e-06
1.2363e-06
1.23616e-06
1.23608e-06
1.23441e-06
1.23431e-06
1.23427e-06
1.23436e-06
1.23593e-06
1.23618e-06
1.23608e-06
1.23394e-06
1.23109e-06
1.23109e-06
1.23109e-06
1.23109e-06
1.23391e-06
1.23455e-06
1.23441e-06
1.23109e-06
1.23109e-06
1.23109e-06
1.23109e-06
1.23109e-06
1.23109e-06
1.23439e-06
1.23618e-06
1.2363e-06
1.23431e-06
1.23109e-06
1.23109e-06
1.23109e-06
1.23109e-06
1.23109e-06
1.23109e-06
1.2343e-06
1.23591e-06
1.23616e-06
1.23427e-06
1.23109e-06
1.23109e-06
1.23109e-06
1.23109e-06
1.23109e-06
1.23109e-06
1.23426e-06
1.23469e-06
1.23436e-06
1.23109e-06
1.23109e-06
1.23109e-06
1.23109e-06
1.23109e-06
1.23109e-06
1.23434e-06
1.23606e-06
1.23593e-06
1.23391e-06
1.23109e-06
1.23109e-06
1.23109e-06
1.23109e-06
1.23385e-06
1.23451e-06
1.23623e-06
1.23618e-06
1.23455e-06
1.23439e-06
1.2343e-06
1.23426e-06
1.23434e-06
1.23451e-06
1.23613e-06
1.23618e-06
1.23591e-06
1.23468e-06
1.23606e-06
1.23623e-06
1.21969e-06
1.21955e-06
1.21946e-06
1.21779e-06
1.21769e-06
1.21766e-06
1.21775e-06
1.21932e-06
1.21956e-06
1.21946e-06
1.21733e-06
1.21448e-06
1.21448e-06
1.21448e-06
1.21448e-06
1.2173e-06
1.21793e-06
1.21779e-06
1.21448e-06
1.21448e-06
1.21448e-06
1.21448e-06
1.21448e-06
1.21448e-06
1.21777e-06
1.21957e-06
1.21969e-06
1.21769e-06
1.21448e-06
1.21448e-06
1.21448e-06
1.21448e-06
1.21448e-06
1.21448e-06
1.21769e-06
1.21929e-06
1.21955e-06
1.21766e-06
1.21448e-06
1.21448e-06
1.21448e-06
1.21448e-06
1.21448e-06
1.21448e-06
1.21765e-06
1.21807e-06
1.21775e-06
1.21448e-06
1.21448e-06
1.21448e-06
1.21448e-06
1.21448e-06
1.21448e-06
1.21773e-06
1.21944e-06
1.21932e-06
1.2173e-06
1.21448e-06
1.21448e-06
1.21448e-06
1.21448e-06
1.21723e-06
1.21789e-06
1.21961e-06
1.21956e-06
1.21793e-06
1.21777e-06
1.21769e-06
1.21765e-06
1.21773e-06
1.21789e-06
1.21952e-06
1.21957e-06
1.21929e-06
1.21807e-06
1.21944e-06
1.21961e-06
1.20307e-06
1.20293e-06
1.20285e-06
1.20118e-06
1.20108e-06
1.20104e-06
1.20113e-06
1.2027e-06
1.20295e-06
1.20285e-06
1.20071e-06
1.19786e-06
1.19786e-06
1.19786e-06
1.19786e-06
1.20068e-06
1.20132e-06
1.20118e-06
1.19786e-06
1.19786e-06
1.19786e-06
1.19786e-06
1.19786e-06
1.19786e-06
1.20116e-06
1.20295e-06
1.20307e-06
1.20108e-06
1.19786e-06
1.19786e-06
1.19786e-06
1.19786e-06
1.19786e-06
1.19786e-06
1.20107e-06
1.20268e-06
1.20293e-06
1.20104e-06
1.19786e-06
1.19786e-06
1.19786e-06
1.19786e-06
1.19786e-06
1.19786e-06
1.20103e-06
1.20146e-06
1.20113e-06
1.19786e-06
1.19786e-06
1.19786e-06
1.19786e-06
1.19786e-06
1.19786e-06
1.20111e-06
1.20283e-06
1.2027e-06
1.20068e-06
1.19786e-06
1.19786e-06
1.19786e-06
1.19786e-06
1.20062e-06
1.20128e-06
1.203e-06
1.20295e-06
1.20132e-06
1.20116e-06
1.20107e-06
1.20104e-06
1.20111e-06
1.20127e-06
1.2029e-06
1.20295e-06
1.20268e-06
1.20146e-06
1.20283e-06
1.203e-06
1.18646e-06
1.18632e-06
1.18623e-06
1.18456e-06
1.18446e-06
1.18443e-06
1.18452e-06
1.18609e-06
1.18633e-06
1.18624e-06
1.1841e-06
1.18125e-06
1.18125e-06
1.18125e-06
1.18125e-06
1.18407e-06
1.1847e-06
1.18456e-06
1.18125e-06
1.18125e-06
1.18125e-06
1.18125e-06
1.18125e-06
1.18125e-06
1.18454e-06
1.18634e-06
1.18646e-06
1.18446e-06
1.18125e-06
1.18125e-06
1.18125e-06
1.18125e-06
1.18125e-06
1.18125e-06
1.18446e-06
1.18606e-06
1.18632e-06
1.18443e-06
1.18125e-06
1.18125e-06
1.18125e-06
1.18125e-06
1.18125e-06
1.18125e-06
1.18442e-06
1.18484e-06
1.18452e-06
1.18125e-06
1.18125e-06
1.18125e-06
1.18125e-06
1.18125e-06
1.18125e-06
1.1845e-06
1.18621e-06
1.18609e-06
1.18407e-06
1.18125e-06
1.18125e-06
1.18125e-06
1.18125e-06
1.184e-06
1.18466e-06
1.18638e-06
1.18633e-06
1.1847e-06
1.18454e-06
1.18446e-06
1.18442e-06
1.1845e-06
1.18466e-06
1.18629e-06
1.18634e-06
1.18606e-06
1.18485e-06
1.18621e-06
1.18638e-06
1.16985e-06
1.1697e-06
1.16962e-06
1.16795e-06
1.16785e-06
1.16781e-06
1.1679e-06
1.16947e-06
1.16972e-06
1.16962e-06
1.16748e-06
1.16463e-06
1.16463e-06
1.16463e-06
1.16463e-06
1.16745e-06
1.16809e-06
1.16795e-06
1.16463e-06
1.16463e-06
1.16463e-06
1.16463e-06
1.16463e-06
1.16463e-06
1.16793e-06
1.16972e-06
1.16984e-06
1.16785e-06
1.16463e-06
1.16463e-06
1.16463e-06
1.16463e-06
1.16463e-06
1.16463e-06
1.16784e-06
1.16945e-06
1.1697e-06
1.16781e-06
1.16463e-06
1.16463e-06
1.16463e-06
1.16463e-06
1.16463e-06
1.16463e-06
1.1678e-06
1.16823e-06
1.1679e-06
1.16463e-06
1.16463e-06
1.16463e-06
1.16463e-06
1.16463e-06
1.16463e-06
1.16788e-06
1.1696e-06
1.16947e-06
1.16745e-06
1.16463e-06
1.16463e-06
1.16463e-06
1.16463e-06
1.16739e-06
1.16805e-06
1.16977e-06
1.16972e-06
1.16809e-06
1.16793e-06
1.16784e-06
1.1678e-06
1.16788e-06
1.16804e-06
1.16967e-06
1.16972e-06
1.16945e-06
1.16823e-06
1.1696e-06
1.16977e-06
1.15323e-06
1.15309e-06
1.153e-06
1.15133e-06
1.15123e-06
1.1512e-06
1.15129e-06
1.15286e-06
1.1531e-06
1.15301e-06
1.15087e-06
1.14802e-06
1.14802e-06
1.14802e-06
1.14802e-06
1.15084e-06
1.15147e-06
1.15133e-06
1.14802e-06
1.14802e-06
1.14802e-06
1.14802e-06
1.14802e-06
1.14802e-06
1.15131e-06
1.15311e-06
1.15323e-06
1.15123e-06
1.14802e-06
1.14802e-06
1.14802e-06
1.14802e-06
1.14802e-06
1.14802e-06
1.15123e-06
1.15283e-06
1.15309e-06
1.1512e-06
1.14802e-06
1.14802e-06
1.14802e-06
1.14802e-06
1.14802e-06
1.14802e-06
1.15119e-06
1.15161e-06
1.15129e-06
1.14802e-06
1.14802e-06
1.14802e-06
1.14802e-06
1.14802e-06
1.14802e-06
1.15127e-06
1.15298e-06
1.15286e-06
1.15084e-06
1.14802e-06
1.14802e-06
1.14802e-06
1.14802e-06
1.15077e-06
1.15143e-06
1.15315e-06
1.1531e-06
1.15147e-06
1.15131e-06
1.15123e-06
1.15119e-06
1.15127e-06
1.15143e-06
1.15306e-06
1.15311e-06
1.15283e-06
1.15161e-06
1.15298e-06
1.15315e-06
1.13661e-06
1.13647e-06
1.13639e-06
1.13472e-06
1.13462e-06
1.13458e-06
1.13467e-06
1.13624e-06
1.13649e-06
1.13639e-06
1.13425e-06
1.1314e-06
1.1314e-06
1.1314e-06
1.1314e-06
1.13422e-06
1.13486e-06
1.13472e-06
1.1314e-06
1.1314e-06
1.1314e-06
1.1314e-06
1.1314e-06
1.1314e-06
1.1347e-06
1.13649e-06
1.13662e-06
1.13462e-06
1.1314e-06
1.1314e-06
1.1314e-06
1.1314e-06
1.1314e-06
1.1314e-06
1.13461e-06
1.13622e-06
1.13647e-06
1.13458e-06
1.1314e-06
1.1314e-06
1.1314e-06
1.1314e-06
1.1314e-06
1.1314e-06
1.13457e-06
1.135e-06
1.13467e-06
1.1314e-06
1.1314e-06
1.1314e-06
1.1314e-06
1.1314e-06
1.1314e-06
1.13465e-06
1.13637e-06
1.13624e-06
1.13422e-06
1.1314e-06
1.1314e-06
1.1314e-06
1.1314e-06
1.13416e-06
1.13482e-06
1.13654e-06
1.13649e-06
1.13486e-06
1.1347e-06
1.13461e-06
1.13457e-06
1.13465e-06
1.13482e-06
1.13645e-06
1.13649e-06
1.13622e-06
1.135e-06
1.13637e-06
1.13654e-06
1.12e-06
1.11986e-06
1.11977e-06
1.1181e-06
1.118e-06
1.11797e-06
1.11806e-06
1.11963e-06
1.11987e-06
1.11978e-06
1.11764e-06
1.11479e-06
1.11479e-06
1.11479e-06
1.11479e-06
1.11761e-06
1.11824e-06
1.1181e-06
1.11479e-06
1.11479e-06
1.11479e-06
1.11479e-06
1.11479e-06
1.11479e-06
1.11808e-06
1.11988e-06
1.12e-06
1.11801e-06
1.11479e-06
1.11479e-06
1.11479e-06
1.11479e-06
1.11479e-06
1.11479e-06
1.118e-06
1.1196e-06
1.11986e-06
1.11797e-06
1.11479e-06
1.11479e-06
1.11479e-06
1.11479e-06
1.11479e-06
1.11479e-06
1.11796e-06
1.11838e-06
1.11806e-06
1.11479e-06
1.11479e-06
1.11479e-06
1.11479e-06
1.11479e-06
1.11479e-06
1.11804e-06
1.11975e-06
1.11963e-06
1.11761e-06
1.11479e-06
1.11479e-06
1.11479e-06
1.11479e-06
1.11754e-06
1.1182e-06
1.11992e-06
1.11987e-06
1.11824e-06
1.11808e-06
1.118e-06
1.11796e-06
1.11804e-06
1.1182e-06
1.11983e-06
1.11988e-06
1.1196e-06
1.11838e-06
1.11975e-06
1.11992e-06
1.10339e-06
1.10324e-06
1.10316e-06
1.10149e-06
1.10139e-06
1.10135e-06
1.10144e-06
1.10301e-06
1.10326e-06
1.10316e-06
1.10102e-06
1.09817e-06
1.09817e-06
1.09817e-06
1.09817e-06
1.10099e-06
1.10163e-06
1.10149e-06
1.09817e-06
1.09817e-06
1.09817e-06
1.09817e-06
1.09817e-06
1.09817e-06
1.10147e-06
1.10326e-06
1.10338e-06
1.10139e-06
1.09817e-06
1.09817e-06
1.09817e-06
1.09817e-06
1.09817e-06
1.09817e-06
1.10138e-06
1.10299e-06
1.10324e-06
1.10135e-06
1.09817e-06
1.09817e-06
1.09817e-06
1.09817e-06
1.09817e-06
1.09817e-06
1.10134e-06
1.10177e-06
1.10144e-06
1.09817e-06
1.09817e-06
1.09817e-06
1.09817e-06
1.09817e-06
1.09817e-06
1.10142e-06
1.10314e-06
1.10301e-06
1.10099e-06
1.09817e-06
1.09817e-06
1.09817e-06
1.09817e-06
1.10093e-06
1.10159e-06
1.10331e-06
1.10326e-06
1.10163e-06
1.10147e-06
1.10138e-06
1.10134e-06
1.10142e-06
1.10159e-06
1.10322e-06
1.10326e-06
1.10299e-06
1.10177e-06
1.10314e-06
1.10331e-06
1.08677e-06
1.08663e-06
1.08654e-06
1.08487e-06
1.08477e-06
1.08474e-06
1.08483e-06
1.0864e-06
1.08664e-06
1.08655e-06
1.08441e-06
1.08156e-06
1.08156e-06
1.08156e-06
1.08156e-06
1.08438e-06
1.08501e-06
1.08487e-06
1.08156e-06
1.08156e-06
1.08156e-06
1.08156e-06
1.08156e-06
1.08156e-06
1.08485e-06
1.08665e-06
1.08677e-06
1.08478e-06
1.08156e-06
1.08156e-06
1.08156e-06
1.08156e-06
1.08156e-06
1.08156e-06
1.08477e-06
1.08637e-06
1.08663e-06
1.08474e-06
1.08156e-06
1.08156e-06
1.08156e-06
1.08156e-06
1.08156e-06
1.08156e-06
1.08473e-06
1.08515e-06
1.08483e-06
1.08156e-06
1.08156e-06
1.08156e-06
1.08156e-06
1.08156e-06
1.08156e-06
1.08481e-06
1.08652e-06
1.0864e-06
1.08438e-06
1.08156e-06
1.08156e-06
1.08156e-06
1.08156e-06
1.08431e-06
1.08497e-06
1.08669e-06
1.08664e-06
1.08501e-06
1.08485e-06
1.08477e-06
1.08473e-06
1.08481e-06
1.08497e-06
1.0866e-06
1.08665e-06
1.08637e-06
1.08515e-06
1.08652e-06
1.08669e-06
1.07016e-06
1.07001e-06
1.06993e-06
1.06826e-06
1.06816e-06
1.06812e-06
1.06821e-06
1.06978e-06
1.07003e-06
1.06993e-06
1.06779e-06
1.06494e-06
1.06494e-06
1.06494e-06
1.06494e-06
1.06776e-06
1.0684e-06
1.06826e-06
1.06494e-06
1.06494e-06
1.06494e-06
1.06494e-06
1.06494e-06
1.06494e-06
1.06824e-06
1.07003e-06
1.07015e-06
1.06816e-06
1.06494e-06
1.06494e-06
1.06494e-06
1.06494e-06
1.06494e-06
1.06494e-06
1.06815e-06
1.06976e-06
1.07001e-06
1.06812e-06
1.06494e-06
1.06494e-06
1.06494e-06
1.06494e-06
1.06494e-06
1.06494e-06
1.06811e-06
1.06854e-06
1.06821e-06
1.06494e-06
1.06494e-06
1.06494e-06
1.06494e-06
1.06494e-06
1.06494e-06
1.06819e-06
1.06991e-06
1.06978e-06
1.06776e-06
1.06494e-06
1.06494e-06
1.06494e-06
1.06494e-06
1.0677e-06
1.06836e-06
1.07008e-06
1.07003e-06
1.0684e-06
1.06824e-06
1.06815e-06
1.06811e-06