/*--------------------------------*- C++ -*----------------------------------*\
| =========                 |                                                 |
| \\      /  F ield         | OpenFOAM: The Open Source CFD Toolbox           |
|  \\    /   O peration     | Version:  v2012                                 |
|   \\  /    A nd           | Website:  www.openfoam.com                      |
|    \\/     M anipulation  |                                                 |
\*---------------------------------------------------------------------------*/
FoamFile
{
    version     2.0;
    format      ascii;
    class       volScalarField;
    location    "11.5";
    object      p;
}
// * * * * * * * * * * * * * * * * * * * * * * * * * * * * * * * * * * * * * //

dimensions      [0 2 -2 0 0 0 0];


internalField   nonuniform List<scalar> 
244288
(
1.53184e-06
1.53204e-06
1.532e-06
1.53188e-06
1.53182e-06
1.5319e-06
1.53201e-06
1.53204e-06
1.53207e-06
1.53184e-06
1.53156e-06
1.53146e-06
1.53159e-06
1.53187e-06
1.53208e-06
1.532e-06
1.53184e-06
1.53141e-06
1.53105e-06
1.53092e-06
1.53108e-06
1.53147e-06
1.53188e-06
1.53199e-06
1.53188e-06
1.53156e-06
1.53105e-06
1.53064e-06
1.5305e-06
1.53068e-06
1.53111e-06
1.53162e-06
1.53189e-06
1.53184e-06
1.53182e-06
1.53146e-06
1.53092e-06
1.5305e-06
1.53036e-06
1.53054e-06
1.53099e-06
1.53152e-06
1.53183e-06
1.5319e-06
1.53159e-06
1.53108e-06
1.53068e-06
1.53054e-06
1.53072e-06
1.53115e-06
1.53165e-06
1.53191e-06
1.53201e-06
1.53187e-06
1.53147e-06
1.53111e-06
1.53099e-06
1.53115e-06
1.53152e-06
1.53191e-06
1.532e-06
1.53208e-06
1.53188e-06
1.53162e-06
1.53152e-06
1.53165e-06
1.53191e-06
1.53208e-06
1.53199e-06
1.53189e-06
1.53183e-06
1.53191e-06
1.532e-06
1.5082e-06
1.50778e-06
1.50755e-06
1.50611e-06
1.50602e-06
1.50602e-06
1.50604e-06
1.50747e-06
1.50761e-06
1.50754e-06
1.50567e-06
1.50316e-06
1.50315e-06
1.50315e-06
1.50316e-06
1.50568e-06
1.50615e-06
1.5061e-06
1.50316e-06
1.5031e-06
1.50313e-06
1.50313e-06
1.5031e-06
1.50316e-06
1.50605e-06
1.50773e-06
1.5082e-06
1.50602e-06
1.50315e-06
1.50313e-06
1.50318e-06
1.50318e-06
1.50313e-06
1.50315e-06
1.50597e-06
1.50746e-06
1.50778e-06
1.50602e-06
1.50315e-06
1.50313e-06
1.50318e-06
1.50318e-06
1.50313e-06
1.50315e-06
1.50593e-06
1.50631e-06
1.50604e-06
1.50316e-06
1.5031e-06
1.50313e-06
1.50313e-06
1.5031e-06
1.50316e-06
1.50601e-06
1.5076e-06
1.50747e-06
1.50568e-06
1.50316e-06
1.50315e-06
1.50315e-06
1.50316e-06
1.50556e-06
1.50617e-06
1.50776e-06
1.50761e-06
1.50615e-06
1.50605e-06
1.50597e-06
1.50593e-06
1.506e-06
1.50616e-06
1.5076e-06
1.50773e-06
1.50746e-06
1.50632e-06
1.50759e-06
1.50776e-06
1.49205e-06
1.49192e-06
1.49184e-06
1.49026e-06
1.49017e-06
1.49014e-06
1.49022e-06
1.49173e-06
1.49193e-06
1.49184e-06
1.48982e-06
1.48712e-06
1.48712e-06
1.48712e-06
1.48712e-06
1.48983e-06
1.49042e-06
1.49026e-06
1.48712e-06
1.48709e-06
1.4871e-06
1.4871e-06
1.48709e-06
1.48712e-06
1.49028e-06
1.49198e-06
1.49205e-06
1.49017e-06
1.48712e-06
1.4871e-06
1.4871e-06
1.4871e-06
1.4871e-06
1.48712e-06
1.49019e-06
1.49171e-06
1.49192e-06
1.49015e-06
1.48712e-06
1.4871e-06
1.4871e-06
1.4871e-06
1.4871e-06
1.48712e-06
1.49016e-06
1.49052e-06
1.49022e-06
1.48712e-06
1.48709e-06
1.4871e-06
1.4871e-06
1.48709e-06
1.48712e-06
1.49024e-06
1.49187e-06
1.49173e-06
1.48983e-06
1.48712e-06
1.48712e-06
1.48712e-06
1.48712e-06
1.48978e-06
1.49038e-06
1.49201e-06
1.49194e-06
1.49042e-06
1.49028e-06
1.49019e-06
1.49016e-06
1.49024e-06
1.49038e-06
1.49177e-06
1.49198e-06
1.49171e-06
1.49052e-06
1.49188e-06
1.49202e-06
1.47609e-06
1.47595e-06
1.47585e-06
1.47426e-06
1.47417e-06
1.47414e-06
1.47423e-06
1.47575e-06
1.47595e-06
1.47586e-06
1.47381e-06
1.4711e-06
1.4711e-06
1.4711e-06
1.4711e-06
1.47382e-06
1.47444e-06
1.47427e-06
1.4711e-06
1.47109e-06
1.47109e-06
1.47109e-06
1.47109e-06
1.4711e-06
1.47431e-06
1.47601e-06
1.47609e-06
1.47417e-06
1.4711e-06
1.47109e-06
1.47109e-06
1.47109e-06
1.47109e-06
1.4711e-06
1.47424e-06
1.47575e-06
1.47595e-06
1.47414e-06
1.4711e-06
1.47109e-06
1.47109e-06
1.47109e-06
1.47109e-06
1.4711e-06
1.4742e-06
1.47456e-06
1.47423e-06
1.4711e-06
1.47109e-06
1.47109e-06
1.47109e-06
1.47109e-06
1.4711e-06
1.47427e-06
1.47591e-06
1.47575e-06
1.47383e-06
1.4711e-06
1.4711e-06
1.4711e-06
1.4711e-06
1.47383e-06
1.47441e-06
1.47604e-06
1.47595e-06
1.47444e-06
1.47431e-06
1.47424e-06
1.47421e-06
1.47428e-06
1.47442e-06
1.47582e-06
1.47601e-06
1.47575e-06
1.47456e-06
1.47591e-06
1.47604e-06
1.46009e-06
1.45995e-06
1.45985e-06
1.45826e-06
1.45817e-06
1.45813e-06
1.45822e-06
1.45975e-06
1.45995e-06
1.45985e-06
1.45779e-06
1.45509e-06
1.45509e-06
1.45509e-06
1.45509e-06
1.45781e-06
1.45844e-06
1.45826e-06
1.45509e-06
1.45509e-06
1.45509e-06
1.45509e-06
1.45509e-06
1.45509e-06
1.45831e-06
1.46001e-06
1.46009e-06
1.45817e-06
1.45509e-06
1.45509e-06
1.45509e-06
1.45509e-06
1.45509e-06
1.45509e-06
1.45824e-06
1.45975e-06
1.45995e-06
1.45813e-06
1.45509e-06
1.45509e-06
1.45509e-06
1.45509e-06
1.45509e-06
1.45509e-06
1.45821e-06
1.45856e-06
1.45822e-06
1.45509e-06
1.45509e-06
1.45509e-06
1.45509e-06
1.45509e-06
1.45509e-06
1.45828e-06
1.45991e-06
1.45975e-06
1.45782e-06
1.45509e-06
1.45509e-06
1.45509e-06
1.45509e-06
1.45783e-06
1.45841e-06
1.46004e-06
1.45995e-06
1.45844e-06
1.45831e-06
1.45824e-06
1.45821e-06
1.45828e-06
1.45842e-06
1.45984e-06
1.46001e-06
1.45975e-06
1.45856e-06
1.45991e-06
1.46004e-06
1.44409e-06
1.44395e-06
1.44385e-06
1.44225e-06
1.44216e-06
1.44212e-06
1.44222e-06
1.44374e-06
1.44395e-06
1.44385e-06
1.44179e-06
1.43908e-06
1.43908e-06
1.43908e-06
1.43908e-06
1.44181e-06
1.44243e-06
1.44225e-06
1.43908e-06
1.43908e-06
1.43908e-06
1.43908e-06
1.43908e-06
1.43908e-06
1.44231e-06
1.444e-06
1.44409e-06
1.44216e-06
1.43908e-06
1.43908e-06
1.43908e-06
1.43908e-06
1.43908e-06
1.43908e-06
1.44224e-06
1.44375e-06
1.44395e-06
1.44212e-06
1.43908e-06
1.43908e-06
1.43908e-06
1.43908e-06
1.43908e-06
1.43908e-06
1.44221e-06
1.44256e-06
1.44221e-06
1.43908e-06
1.43908e-06
1.43908e-06
1.43908e-06
1.43908e-06
1.43908e-06
1.44227e-06
1.44391e-06
1.44374e-06
1.44181e-06
1.43908e-06
1.43908e-06
1.43908e-06
1.43908e-06
1.44183e-06
1.44241e-06
1.44404e-06
1.44395e-06
1.44243e-06
1.44231e-06
1.44224e-06
1.44221e-06
1.44227e-06
1.44241e-06
1.44386e-06
1.444e-06
1.44375e-06
1.44256e-06
1.44391e-06
1.44403e-06
1.42808e-06
1.42795e-06
1.42784e-06
1.42625e-06
1.42615e-06
1.42611e-06
1.42621e-06
1.42774e-06
1.42794e-06
1.42784e-06
1.42578e-06
1.42308e-06
1.42308e-06
1.42308e-06
1.42308e-06
1.4258e-06
1.42642e-06
1.42625e-06
1.42308e-06
1.42308e-06
1.42308e-06
1.42308e-06
1.42308e-06
1.42308e-06
1.4263e-06
1.428e-06
1.42808e-06
1.42615e-06
1.42308e-06
1.42308e-06
1.42308e-06
1.42308e-06
1.42308e-06
1.42308e-06
1.42623e-06
1.42774e-06
1.42796e-06
1.42611e-06
1.42308e-06
1.42308e-06
1.42308e-06
1.42308e-06
1.42308e-06
1.42308e-06
1.4262e-06
1.42655e-06
1.42621e-06
1.42308e-06
1.42308e-06
1.42308e-06
1.42308e-06
1.42307e-06
1.42308e-06
1.42627e-06
1.4279e-06
1.42774e-06
1.4258e-06
1.42308e-06
1.42308e-06
1.42308e-06
1.42307e-06
1.42582e-06
1.42641e-06
1.42803e-06
1.42794e-06
1.42642e-06
1.4263e-06
1.42623e-06
1.4262e-06
1.42627e-06
1.4264e-06
1.42785e-06
1.428e-06
1.42774e-06
1.42655e-06
1.4279e-06
1.42803e-06
1.41208e-06
1.41194e-06
1.41184e-06
1.41024e-06
1.41015e-06
1.41011e-06
1.4102e-06
1.41173e-06
1.41194e-06
1.41184e-06
1.40978e-06
1.40707e-06
1.40707e-06
1.40707e-06
1.40707e-06
1.4098e-06
1.41041e-06
1.41024e-06
1.40707e-06
1.40707e-06
1.40707e-06
1.40707e-06
1.40707e-06
1.40707e-06
1.41029e-06
1.41199e-06
1.41208e-06
1.41015e-06
1.40707e-06
1.40707e-06
1.40707e-06
1.40707e-06
1.40707e-06
1.40707e-06
1.41023e-06
1.41174e-06
1.41194e-06
1.41011e-06
1.40707e-06
1.40707e-06
1.40707e-06
1.40707e-06
1.40707e-06
1.40707e-06
1.4102e-06
1.41055e-06
1.4102e-06
1.40707e-06
1.40707e-06
1.40707e-06
1.40707e-06
1.40707e-06
1.40707e-06
1.41026e-06
1.4119e-06
1.41173e-06
1.4098e-06
1.40707e-06
1.40707e-06
1.40707e-06
1.40707e-06
1.40982e-06
1.4104e-06
1.41202e-06
1.41194e-06
1.41041e-06
1.41029e-06
1.41023e-06
1.4102e-06
1.41026e-06
1.4104e-06
1.41184e-06
1.41199e-06
1.41174e-06
1.41055e-06
1.4119e-06
1.41202e-06
1.39607e-06
1.39593e-06
1.39583e-06
1.39424e-06
1.39414e-06
1.3941e-06
1.3942e-06
1.39573e-06
1.39593e-06
1.39583e-06
1.39377e-06
1.39106e-06
1.39106e-06
1.39106e-06
1.39106e-06
1.39379e-06
1.39441e-06
1.39424e-06
1.39106e-06
1.39106e-06
1.39106e-06
1.39106e-06
1.39106e-06
1.39106e-06
1.39429e-06
1.39599e-06
1.39607e-06
1.39414e-06
1.39106e-06
1.39106e-06
1.39106e-06
1.39106e-06
1.39106e-06
1.39106e-06
1.39422e-06
1.39573e-06
1.39593e-06
1.3941e-06
1.39106e-06
1.39106e-06
1.39106e-06
1.39106e-06
1.39106e-06
1.39106e-06
1.39419e-06
1.39454e-06
1.3942e-06
1.39106e-06
1.39106e-06
1.39106e-06
1.39106e-06
1.39106e-06
1.39106e-06
1.39426e-06
1.39589e-06
1.39573e-06
1.39379e-06
1.39106e-06
1.39106e-06
1.39106e-06
1.39106e-06
1.39381e-06
1.3944e-06
1.39602e-06
1.39593e-06
1.39441e-06
1.39429e-06
1.39422e-06
1.39419e-06
1.39426e-06
1.39439e-06
1.39583e-06
1.39599e-06
1.39573e-06
1.39454e-06
1.39589e-06
1.39602e-06
1.38006e-06
1.37993e-06
1.37983e-06
1.37823e-06
1.37814e-06
1.3781e-06
1.37819e-06
1.37972e-06
1.37993e-06
1.37983e-06
1.37776e-06
1.37506e-06
1.37506e-06
1.37506e-06
1.37506e-06
1.37779e-06
1.3784e-06
1.37823e-06
1.37506e-06
1.37506e-06
1.37506e-06
1.37506e-06
1.37506e-06
1.37506e-06
1.37828e-06
1.37998e-06
1.38006e-06
1.37814e-06
1.37506e-06
1.37506e-06
1.37506e-06
1.37506e-06
1.37506e-06
1.37506e-06
1.37822e-06
1.37972e-06
1.37993e-06
1.3781e-06
1.37506e-06
1.37506e-06
1.37506e-06
1.37506e-06
1.37506e-06
1.37506e-06
1.37818e-06
1.37854e-06
1.37819e-06
1.37506e-06
1.37506e-06
1.37506e-06
1.37506e-06
1.37506e-06
1.37506e-06
1.37825e-06
1.37989e-06
1.37972e-06
1.37779e-06
1.37506e-06
1.37506e-06
1.37506e-06
1.37506e-06
1.37781e-06
1.37839e-06
1.38001e-06
1.37993e-06
1.3784e-06
1.37828e-06
1.37822e-06
1.37818e-06
1.37825e-06
1.37839e-06
1.37983e-06
1.37998e-06
1.37973e-06
1.37854e-06
1.37989e-06
1.38001e-06
1.36406e-06
1.36392e-06
1.36382e-06
1.36223e-06
1.36213e-06
1.36209e-06
1.36219e-06
1.36372e-06
1.36392e-06
1.36382e-06
1.36176e-06
1.35905e-06
1.35905e-06
1.35905e-06
1.35905e-06
1.36178e-06
1.3624e-06
1.36222e-06
1.35905e-06
1.35905e-06
1.35905e-06
1.35905e-06
1.35905e-06
1.35905e-06
1.36228e-06
1.36397e-06
1.36406e-06
1.36213e-06
1.35905e-06
1.35905e-06
1.35905e-06
1.35905e-06
1.35905e-06
1.35905e-06
1.36221e-06
1.36372e-06
1.36392e-06
1.36209e-06
1.35905e-06
1.35905e-06
1.35905e-06
1.35905e-06
1.35905e-06
1.35905e-06
1.36218e-06
1.36253e-06
1.36219e-06
1.35905e-06
1.35905e-06
1.35905e-06
1.35905e-06
1.35905e-06
1.35905e-06
1.36225e-06
1.36388e-06
1.36372e-06
1.36178e-06
1.35905e-06
1.35905e-06
1.35905e-06
1.35905e-06
1.3618e-06
1.36238e-06
1.36401e-06
1.36392e-06
1.3624e-06
1.36228e-06
1.36221e-06
1.36218e-06
1.36225e-06
1.36238e-06
1.36382e-06
1.36397e-06
1.36372e-06
1.36253e-06
1.36388e-06
1.36401e-06
1.34805e-06
1.34792e-06
1.34782e-06
1.34622e-06
1.34613e-06
1.34609e-06
1.34618e-06
1.34771e-06
1.34792e-06
1.34781e-06
1.34575e-06
1.34305e-06
1.34305e-06
1.34305e-06
1.34305e-06
1.34577e-06
1.34639e-06
1.34622e-06
1.34305e-06
1.34305e-06
1.34305e-06
1.34305e-06
1.34305e-06
1.34305e-06
1.34627e-06
1.34797e-06
1.34805e-06
1.34613e-06
1.34305e-06
1.34305e-06
1.34305e-06
1.34305e-06
1.34305e-06
1.34305e-06
1.34621e-06
1.34771e-06
1.34792e-06
1.34609e-06
1.34305e-06
1.34305e-06
1.34305e-06
1.34305e-06
1.34305e-06
1.34305e-06
1.34617e-06
1.34652e-06
1.34618e-06
1.34305e-06
1.34305e-06
1.34305e-06
1.34305e-06
1.34305e-06
1.34305e-06
1.34624e-06
1.34788e-06
1.34771e-06
1.34577e-06
1.34305e-06
1.34305e-06
1.34305e-06
1.34305e-06
1.3458e-06
1.34638e-06
1.348e-06
1.34792e-06
1.34639e-06
1.34627e-06
1.34621e-06
1.34617e-06
1.34624e-06
1.34638e-06
1.34782e-06
1.34797e-06
1.34771e-06
1.34652e-06
1.34788e-06
1.348e-06
1.33205e-06
1.33191e-06
1.33181e-06
1.33022e-06
1.33012e-06
1.33008e-06
1.33018e-06
1.3317e-06
1.33191e-06
1.33181e-06
1.32975e-06
1.32704e-06
1.32704e-06
1.32704e-06
1.32704e-06
1.32977e-06
1.33038e-06
1.33021e-06
1.32704e-06
1.32704e-06
1.32704e-06
1.32704e-06
1.32704e-06
1.32704e-06
1.33027e-06
1.33196e-06
1.33205e-06
1.33012e-06
1.32704e-06
1.32704e-06
1.32704e-06
1.32704e-06
1.32704e-06
1.32704e-06
1.3302e-06
1.33171e-06
1.33191e-06
1.33008e-06
1.32704e-06
1.32704e-06
1.32704e-06
1.32704e-06
1.32704e-06
1.32704e-06
1.33017e-06
1.33052e-06
1.33018e-06
1.32704e-06
1.32704e-06
1.32704e-06
1.32704e-06
1.32704e-06
1.32704e-06
1.33024e-06
1.33187e-06
1.3317e-06
1.32977e-06
1.32704e-06
1.32704e-06
1.32704e-06
1.32704e-06
1.32979e-06
1.33037e-06
1.332e-06
1.33191e-06
1.33039e-06
1.33027e-06
1.3302e-06
1.33017e-06
1.33023e-06
1.33037e-06
1.33181e-06
1.33196e-06
1.33171e-06
1.33052e-06
1.33187e-06
1.332e-06
1.31604e-06
1.31591e-06
1.31581e-06
1.31421e-06
1.31412e-06
1.31408e-06
1.31417e-06
1.3157e-06
1.31591e-06
1.3158e-06
1.31374e-06
1.31104e-06
1.31104e-06
1.31104e-06
1.31104e-06
1.31376e-06
1.31438e-06
1.31421e-06
1.31104e-06
1.31104e-06
1.31104e-06
1.31104e-06
1.31104e-06
1.31104e-06
1.31426e-06
1.31596e-06
1.31604e-06
1.31411e-06
1.31104e-06
1.31104e-06
1.31104e-06
1.31104e-06
1.31104e-06
1.31104e-06
1.3142e-06
1.3157e-06
1.31592e-06
1.31407e-06
1.31104e-06
1.31104e-06
1.31104e-06
1.31104e-06
1.31104e-06
1.31104e-06
1.31416e-06
1.31451e-06
1.31417e-06
1.31104e-06
1.31104e-06
1.31104e-06
1.31104e-06
1.31104e-06
1.31104e-06
1.31423e-06
1.31587e-06
1.3157e-06
1.31376e-06
1.31104e-06
1.31104e-06
1.31104e-06
1.31104e-06
1.31378e-06
1.31437e-06
1.31599e-06
1.3159e-06
1.31438e-06
1.31426e-06
1.3142e-06
1.31416e-06
1.31423e-06
1.31437e-06
1.31581e-06
1.31596e-06
1.3157e-06
1.31451e-06
1.31587e-06
1.31599e-06
1.30004e-06
1.2999e-06
1.2998e-06
1.2982e-06
1.29811e-06
1.29807e-06
1.29817e-06
1.29969e-06
1.2999e-06
1.2998e-06
1.29774e-06
1.29503e-06
1.29503e-06
1.29503e-06
1.29503e-06
1.29776e-06
1.29837e-06
1.2982e-06
1.29503e-06
1.29503e-06
1.29503e-06
1.29503e-06
1.29503e-06
1.29503e-06
1.29826e-06
1.29995e-06
1.30004e-06
1.29811e-06
1.29503e-06
1.29503e-06
1.29503e-06
1.29503e-06
1.29503e-06
1.29503e-06
1.29819e-06
1.2997e-06
1.2999e-06
1.29807e-06
1.29503e-06
1.29503e-06
1.29503e-06
1.29503e-06
1.29503e-06
1.29503e-06
1.29816e-06
1.29851e-06
1.29816e-06
1.29503e-06
1.29503e-06
1.29503e-06
1.29503e-06
1.29503e-06
1.29503e-06
1.29822e-06
1.29986e-06
1.29969e-06
1.29776e-06
1.29503e-06
1.29503e-06
1.29503e-06
1.29503e-06
1.29778e-06
1.29836e-06
1.29999e-06
1.2999e-06
1.29837e-06
1.29826e-06
1.29819e-06
1.29816e-06
1.29822e-06
1.29836e-06
1.2998e-06
1.29995e-06
1.2997e-06
1.29851e-06
1.29986e-06
1.29998e-06
1.28403e-06
1.2839e-06
1.28379e-06
1.2822e-06
1.2821e-06
1.28206e-06
1.28216e-06
1.28369e-06
1.2839e-06
1.28379e-06
1.28173e-06
1.27902e-06
1.27902e-06
1.27902e-06
1.27902e-06
1.28175e-06
1.28237e-06
1.2822e-06
1.27902e-06
1.27902e-06
1.27902e-06
1.27902e-06
1.27902e-06
1.27902e-06
1.28225e-06
1.28395e-06
1.28403e-06
1.2821e-06
1.27902e-06
1.27902e-06
1.27902e-06
1.27902e-06
1.27902e-06
1.27902e-06
1.28218e-06
1.28369e-06
1.28389e-06
1.28206e-06
1.27902e-06
1.27902e-06
1.27902e-06
1.27902e-06
1.27902e-06
1.27902e-06
1.28215e-06
1.2825e-06
1.28216e-06
1.27902e-06
1.27902e-06
1.27902e-06
1.27902e-06
1.27902e-06
1.27902e-06
1.28222e-06
1.28385e-06
1.28369e-06
1.28175e-06
1.27902e-06
1.27902e-06
1.27902e-06
1.27902e-06
1.28177e-06
1.28236e-06
1.28398e-06
1.28389e-06
1.28237e-06
1.28225e-06
1.28218e-06
1.28215e-06
1.28222e-06
1.28235e-06
1.2838e-06
1.28395e-06
1.28369e-06
1.2825e-06
1.28385e-06
1.28398e-06
1.26802e-06
1.26789e-06
1.26779e-06
1.26619e-06
1.2661e-06
1.26606e-06
1.26615e-06
1.26768e-06
1.26789e-06
1.26779e-06
1.26573e-06
1.26302e-06
1.26302e-06
1.26302e-06
1.26302e-06
1.26575e-06
1.26636e-06
1.26619e-06
1.26302e-06
1.26302e-06
1.26302e-06
1.26302e-06
1.26302e-06
1.26302e-06
1.26624e-06
1.26794e-06
1.26802e-06
1.2661e-06
1.26302e-06
1.26302e-06
1.26302e-06
1.26302e-06
1.26302e-06
1.26302e-06
1.26618e-06
1.26769e-06
1.26789e-06
1.26606e-06
1.26302e-06
1.26302e-06
1.26302e-06
1.26302e-06
1.26302e-06
1.26302e-06
1.26615e-06
1.2665e-06
1.26615e-06
1.26302e-06
1.26302e-06
1.26302e-06
1.26302e-06
1.26302e-06
1.26302e-06
1.26621e-06
1.26785e-06
1.26768e-06
1.26575e-06
1.26302e-06
1.26302e-06
1.26302e-06
1.26302e-06
1.26577e-06
1.26635e-06
1.26797e-06
1.26789e-06
1.26636e-06
1.26624e-06
1.26618e-06
1.26615e-06
1.26621e-06
1.26635e-06
1.2678e-06
1.26794e-06
1.26769e-06
1.2665e-06
1.26785e-06
1.26797e-06
1.25202e-06
1.25188e-06
1.25178e-06
1.25019e-06
1.25009e-06
1.25005e-06
1.25015e-06
1.25168e-06
1.25188e-06
1.25178e-06
1.24972e-06
1.24701e-06
1.24701e-06
1.24701e-06
1.24701e-06
1.24974e-06
1.25036e-06
1.25019e-06
1.24701e-06
1.24701e-06
1.24701e-06
1.24701e-06
1.24701e-06
1.24701e-06
1.25024e-06
1.25193e-06
1.25202e-06
1.25009e-06
1.24701e-06
1.24701e-06
1.24701e-06
1.24701e-06
1.24701e-06
1.24701e-06
1.25017e-06
1.25168e-06
1.25188e-06
1.25005e-06
1.24701e-06
1.24701e-06
1.24701e-06
1.24701e-06
1.24701e-06
1.24701e-06
1.25014e-06
1.25049e-06
1.25015e-06
1.24701e-06
1.24701e-06
1.24701e-06
1.24701e-06
1.24701e-06
1.24701e-06
1.25021e-06
1.25184e-06
1.25168e-06
1.24974e-06
1.24701e-06
1.24701e-06
1.24701e-06
1.24701e-06
1.24976e-06
1.25035e-06
1.25197e-06
1.25188e-06
1.25036e-06
1.25024e-06
1.25017e-06
1.25014e-06
1.25021e-06
1.25034e-06
1.25179e-06
1.25193e-06
1.25168e-06
1.25049e-06
1.25184e-06
1.25197e-06
1.23601e-06
1.23588e-06
1.23578e-06
1.23418e-06
1.23409e-06
1.23405e-06
1.23414e-06
1.23567e-06
1.23588e-06
1.23578e-06
1.23371e-06
1.23101e-06
1.23101e-06
1.23101e-06
1.23101e-06
1.23373e-06
1.23435e-06
1.23418e-06
1.23101e-06
1.23101e-06
1.23101e-06
1.23101e-06
1.23101e-06
1.23101e-06
1.23423e-06
1.23593e-06
1.23601e-06
1.23409e-06
1.23101e-06
1.23101e-06
1.23101e-06
1.23101e-06
1.23101e-06
1.23101e-06
1.23417e-06
1.23567e-06
1.23588e-06
1.23405e-06
1.23101e-06
1.23101e-06
1.23101e-06
1.23101e-06
1.23101e-06
1.23101e-06
1.23413e-06
1.23448e-06
1.23414e-06
1.23101e-06
1.23101e-06
1.23101e-06
1.23101e-06
1.23101e-06
1.23101e-06
1.2342e-06
1.23584e-06
1.23567e-06
1.23373e-06
1.23101e-06
1.23101e-06
1.23101e-06
1.23101e-06
1.23376e-06
1.23434e-06
1.23596e-06
1.23588e-06
1.23435e-06
1.23423e-06
1.23417e-06
1.23413e-06
1.2342e-06
1.23434e-06
1.23579e-06
1.23593e-06
1.23568e-06
1.23448e-06
1.23584e-06
1.23596e-06
1.22001e-06
1.21987e-06
1.21977e-06
1.21818e-06
1.21808e-06
1.21804e-06
1.21814e-06
1.21967e-06
1.21987e-06
1.21977e-06
1.21771e-06
1.215e-06
1.215e-06
1.215e-06
1.215e-06
1.21773e-06
1.21834e-06
1.21817e-06
1.215e-06
1.215e-06
1.215e-06
1.215e-06
1.215e-06
1.215e-06
1.21823e-06
1.21992e-06
1.22001e-06
1.21808e-06
1.215e-06
1.215e-06
1.215e-06
1.215e-06
1.215e-06
1.215e-06
1.21816e-06
1.21967e-06
1.21987e-06
1.21804e-06
1.215e-06
1.215e-06
1.215e-06
1.215e-06
1.215e-06
1.215e-06
1.21813e-06
1.21848e-06
1.21814e-06
1.215e-06
1.215e-06
1.215e-06
1.215e-06
1.215e-06
1.215e-06
1.2182e-06
1.21983e-06
1.21966e-06
1.21773e-06
1.215e-06
1.215e-06
1.215e-06
1.215e-06
1.21775e-06
1.21833e-06
1.21996e-06
1.21987e-06
1.21835e-06
1.21823e-06
1.21816e-06
1.21813e-06
1.2182e-06
1.21833e-06
1.21978e-06
1.21992e-06
1.21967e-06
1.21848e-06
1.21983e-06
1.21996e-06
1.204e-06
1.20387e-06
1.20377e-06
1.20217e-06
1.20208e-06
1.20204e-06
1.20213e-06
1.20366e-06
1.20387e-06
1.20376e-06
1.2017e-06
1.199e-06
1.199e-06
1.199e-06
1.199e-06
1.20172e-06
1.20234e-06
1.20217e-06
1.199e-06
1.199e-06
1.199e-06
1.199e-06
1.199e-06
1.199e-06
1.20222e-06
1.20392e-06
1.204e-06
1.20208e-06
1.199e-06
1.199e-06
1.199e-06
1.199e-06
1.199e-06
1.199e-06
1.20216e-06
1.20366e-06
1.20387e-06
1.20203e-06
1.199e-06
1.199e-06
1.199e-06
1.199e-06
1.199e-06
1.199e-06
1.20212e-06
1.20247e-06
1.20213e-06
1.199e-06
1.199e-06
1.199e-06
1.199e-06
1.199e-06
1.199e-06
1.20219e-06
1.20383e-06
1.20366e-06
1.20172e-06
1.199e-06
1.199e-06
1.199e-06
1.199e-06
1.20174e-06
1.20233e-06
1.20395e-06
1.20387e-06
1.20234e-06
1.20222e-06
1.20215e-06
1.20212e-06
1.20219e-06
1.20232e-06
1.20378e-06
1.20392e-06
1.20366e-06
1.20248e-06
1.20383e-06
1.20395e-06
1.188e-06
1.18786e-06
1.18776e-06
1.18616e-06
1.18607e-06
1.18603e-06
1.18613e-06
1.18765e-06
1.18786e-06
1.18776e-06
1.1857e-06
1.18299e-06
1.18299e-06
1.18299e-06
1.18299e-06
1.18572e-06
1.18633e-06
1.18616e-06
1.18299e-06
1.18299e-06
1.18299e-06
1.18299e-06
1.18299e-06
1.18299e-06
1.18622e-06
1.18791e-06
1.188e-06
1.18607e-06
1.18299e-06
1.18299e-06
1.18299e-06
1.18299e-06
1.18299e-06
1.18299e-06
1.18615e-06
1.18766e-06
1.18786e-06
1.18603e-06
1.18299e-06
1.18299e-06
1.18299e-06
1.18299e-06
1.18299e-06
1.18299e-06
1.18612e-06
1.18647e-06
1.18613e-06
1.18299e-06
1.18299e-06
1.18299e-06
1.18299e-06
1.18299e-06
1.18299e-06
1.18618e-06
1.18782e-06
1.18765e-06
1.18572e-06
1.18299e-06
1.18299e-06
1.18299e-06
1.18299e-06
1.18574e-06
1.18632e-06
1.18795e-06
1.18786e-06
1.18633e-06
1.18622e-06
1.18615e-06
1.18612e-06
1.18618e-06
1.18632e-06
1.18777e-06
1.18791e-06
1.18766e-06
1.18647e-06
1.18782e-06
1.18794e-06
1.17199e-06
1.17186e-06
1.17175e-06
1.17016e-06
1.17006e-06
1.17002e-06
1.17012e-06
1.17165e-06
1.17186e-06
1.17175e-06
1.16969e-06
1.16698e-06
1.16698e-06
1.16698e-06
1.16698e-06
1.16971e-06
1.17033e-06
1.17016e-06
1.16698e-06
1.16698e-06
1.16698e-06
1.16698e-06
1.16698e-06
1.16698e-06
1.17021e-06
1.17191e-06
1.17199e-06
1.17006e-06
1.16698e-06
1.16698e-06
1.16698e-06
1.16698e-06
1.16698e-06
1.16698e-06
1.17014e-06
1.17165e-06
1.17185e-06
1.17002e-06
1.16698e-06
1.16698e-06
1.16698e-06
1.16698e-06
1.16698e-06
1.16698e-06
1.17011e-06
1.17046e-06
1.17012e-06
1.16698e-06
1.16698e-06
1.16698e-06
1.16698e-06
1.16698e-06
1.16698e-06
1.17018e-06
1.17181e-06
1.17165e-06
1.16971e-06
1.16698e-06
1.16698e-06
1.16698e-06
1.16698e-06
1.16973e-06
1.17032e-06
1.17194e-06
1.17185e-06
1.17033e-06
1.17021e-06
1.17014e-06
1.17011e-06
1.17018e-06
1.17031e-06
1.17177e-06
1.17191e-06
1.17165e-06
1.17046e-06
1.17181e-06
1.17194e-06
1.15598e-06
1.15585e-06
1.15575e-06
1.15415e-06
1.15406e-06
1.15402e-06
1.15411e-06
1.15564e-06
1.15585e-06
1.15575e-06
1.15368e-06
1.15098e-06
1.15098e-06
1.15098e-06
1.15098e-06
1.15371e-06
1.15432e-06
1.15415e-06
1.15098e-06
1.15098e-06
1.15098e-06
1.15098e-06
1.15098e-06
1.15098e-06
1.1542e-06
1.1559e-06
1.15598e-06
1.15406e-06
1.15098e-06
1.15098e-06
1.15098e-06
1.15098e-06
1.15098e-06
1.15098e-06
1.15414e-06
1.15565e-06
1.15585e-06
1.15402e-06
1.15098e-06
1.15098e-06
1.15098e-06
1.15098e-06
1.15098e-06
1.15098e-06
1.15411e-06
1.15446e-06
1.15411e-06
1.15098e-06
1.15098e-06
1.15098e-06
1.15098e-06
1.15098e-06
1.15098e-06
1.15417e-06
1.15581e-06
1.15564e-06
1.15371e-06
1.15098e-06
1.15098e-06
1.15098e-06
1.15098e-06
1.15373e-06
1.15431e-06
1.15593e-06
1.15585e-06
1.15432e-06
1.1542e-06
1.15414e-06
1.15411e-06
1.15417e-06
1.15431e-06
1.15576e-06
1.1559e-06
1.15564e-06
1.15446e-06
1.15581e-06
1.15593e-06
1.13998e-06
1.13984e-06
1.13974e-06
1.13815e-06
1.13805e-06
1.13801e-06
1.13811e-06
1.13964e-06
1.13984e-06
1.13974e-06
1.13768e-06
1.13497e-06
1.13497e-06
1.13497e-06
1.13497e-06
1.1377e-06
1.13832e-06
1.13815e-06
1.13497e-06
1.13497e-06
1.13497e-06
1.13497e-06
1.13497e-06
1.13497e-06
1.1382e-06
1.13989e-06
1.13998e-06
1.13805e-06
1.13497e-06
1.13497e-06
1.13497e-06
1.13497e-06
1.13497e-06
1.13497e-06
1.13813e-06
1.13964e-06
1.13984e-06
1.13801e-06
1.13497e-06
1.13497e-06
1.13497e-06
1.13497e-06
1.13497e-06
1.13497e-06
1.1381e-06
1.13845e-06
1.13811e-06
1.13497e-06
1.13497e-06
1.13497e-06
1.13497e-06
1.13497e-06
1.13497e-06
1.13817e-06
1.1398e-06
1.13964e-06
1.1377e-06
1.13497e-06
1.13497e-06
1.13497e-06
1.13497e-06
1.13772e-06
1.13831e-06
1.13993e-06
1.13984e-06
1.13832e-06
1.1382e-06
1.13813e-06
1.1381e-06
1.13817e-06
1.1383e-06
1.13975e-06
1.13989e-06
1.13964e-06
1.13845e-06
1.1398e-06
1.13993e-06
1.12397e-06
1.12384e-06
1.12374e-06
1.12214e-06
1.12205e-06
1.12201e-06
1.1221e-06
1.12363e-06
1.12384e-06
1.12374e-06
1.12167e-06
1.11897e-06
1.11897e-06
1.11897e-06
1.11897e-06
1.12169e-06
1.12231e-06
1.12214e-06
1.11897e-06
1.11897e-06
1.11897e-06
1.11897e-06
1.11897e-06
1.11897e-06
1.12219e-06
1.12389e-06
1.12397e-06
1.12205e-06
1.11897e-06
1.11897e-06
1.11897e-06
1.11897e-06
1.11897e-06
1.11897e-06
1.12213e-06
1.12363e-06
1.12384e-06
1.12201e-06
1.11897e-06
1.11897e-06
1.11897e-06
1.11897e-06
1.11897e-06
1.11897e-06
1.12209e-06
1.12244e-06
1.1221e-06
1.11897e-06
1.11897e-06
1.11897e-06
1.11897e-06
1.11897e-06
1.11897e-06
1.12216e-06
1.1238e-06
1.12363e-06
1.12169e-06
1.11897e-06
1.11897e-06
1.11897e-06
1.11897e-06
1.12172e-06
1.1223e-06
1.12392e-06
1.12384e-06
1.12231e-06
1.12219e-06
1.12213e-06
1.12209e-06
1.12216e-06
1.1223e-06
1.12374e-06
1.12389e-06
1.12363e-06
1.12245e-06
1.1238e-06
1.12392e-06
1.10797e-06
1.10783e-06
1.10773e-06
1.10614e-06
1.10604e-06
1.106e-06
1.1061e-06
1.10762e-06
1.10783e-06
1.10773e-06
1.10567e-06
1.10296e-06
1.10296e-06
1.10296e-06
1.10296e-06
1.10569e-06
1.1063e-06
1.10613e-06
1.10296e-06
1.10296e-06
1.10296e-06
1.10296e-06
1.10296e-06
1.10296e-06
1.10619e-06
1.10788e-06
1.10797e-06
1.10604e-06
1.10296e-06
1.10296e-06
1.10296e-06
1.10296e-06
1.10296e-06
1.10296e-06
1.10612e-06
1.10763e-06
1.10783e-06
1.106e-06
1.10296e-06
1.10296e-06
1.10296e-06
1.10296e-06
1.10296e-06
1.10296e-06
1.10609e-06
1.10644e-06
1.1061e-06
1.10296e-06
1.10296e-06
1.10296e-06
1.10296e-06
1.10296e-06
1.10296e-06
1.10616e-06
1.10779e-06
1.10762e-06
1.10569e-06
1.10296e-06
1.10296e-06
1.10296e-06
1.10296e-06
1.10571e-06
1.10629e-06
1.10792e-06
1.10783e-06
1.10631e-06
1.10619e-06
1.10612e-06
1.10609e-06
1.10616e-06
1.10629e-06
1.10773e-06
1.10788e-06
1.10763e-06
1.10644e-06
1.10779e-06
1.10792e-06
1.09196e-06
1.09183e-06
1.09173e-06
1.09013e-06
1.09004e-06
1.09e-06
1.09009e-06
1.09162e-06
1.09183e-06
1.09172e-06
1.08966e-06
1.08696e-06
1.08696e-06
1.08696e-06
1.08696e-06
1.08968e-06
1.0903e-06
1.09013e-06
1.08696e-06
1.08696e-06
1.08696e-06
1.08696e-06
1.08696e-06
1.08696e-06
1.09018e-06
1.09188e-06
1.09196e-06
1.09004e-06
1.08696e-06
1.08696e-06
1.08696e-06
1.08696e-06
1.08696e-06
1.08696e-06
1.09012e-06
1.09162e-06
1.09183e-06
1.09e-06
1.08696e-06
1.08696e-06
1.08696e-06
1.08696e-06
1.08696e-06
1.08696e-06
1.09008e-06
1.09043e-06
1.09009e-06
1.08696e-06
1.08696e-06
1.08696e-06
1.08696e-06
1.08696e-06
1.08696e-06
1.09015e-06
1.09179e-06
1.09162e-06
1.08968e-06
1.08696e-06
1.08696e-06
1.08696e-06
1.08696e-06
1.0897e-06
1.09029e-06
1.09191e-06
1.09183e-06
1.0903e-06
1.09018e-06
1.09012e-06
1.09008e-06
1.09015e-06
1.09029e-06
1.09173e-06
1.09188e-06
1.09162e-06
1.09043e-06
1.09179e-06
1.09191e-06
1.07596e-06
1.07582e-06
1.07572e-06
1.07412e-06
1.07403e-06
1.07399e-06
1.07409e-06
1.07561e-06
1.07582e-06
1.07572e-06
1.07366e-06
1.07095e-06
1.07095e-06
1.07095e-06
1.07095e-06
1.07368e-06
1.07429e-06
1.07412e-06
1.07095e-06
1.07095e-06
1.07095e-06
1.07095e-06
1.07095e-06
1.07095e-06
1.07418e-06
1.07587e-06
1.07595e-06
1.07404e-06
1.07095e-06
1.07095e-06
1.07095e-06
1.07095e-06
1.07095e-06
1.07095e-06
1.07411e-06
1.07562e-06
1.07582e-06
1.07399e-06
1.07095e-06
1.07095e-06
1.07095e-06
1.07095e-06
1.07095e-06
1.07095e-06
1.07408e-06
1.07443e-06
1.07409e-06
1.07095e-06
1.07095e-06
1.07095e-06
1.07095e-06
1.07095e-06
1.07095e-06
1.07414e-06
1.07578e-06
1.07561e-06
1.07368e-06
1.07095e-06
1.07095e-06
1.07095e-06
1.07095e-06
1.0737e-06
1.07428e-06
1.07591e-06
1.07582e-06
1.07429e-06
1.07418e-06
1.07411e-06
1.07408e-06
1.07414e-06
1.07428e-06
1.07572e-06
1.07587e-06
1.07562e-06
1.07443e-06
1.07578e-06
1.0759e-06
1.05995e-06
1.05982e-06
1.05971e-06
1.05812e-06
1.05803e-06
1.05798e-06
1.05808e-06
1.05961e-06
1.05982e-06
1.05971e-06
1.05765e-06
1.05494e-06
1.05494e-06
1.05494e-06
1.05494e-06
1.05767e-06
1.05829e-06
1.05812e-06
1.05494e-06
1.05494e-06
1.05494e-06
1.05494e-06
1.05494e-06
1.05494e-06
1.05817e-06
1.05987e-06
1.05995e-06
1.05803e-06
1.05494e-06
1.05494e-06
1.05494e-06
1.05494e-06
1.05494e-06
1.05494e-06
1.0581e-06
1.05961e-06
1.05981e-06
1.05798e-06
1.05494e-06
1.05494e-06
1.05494e-06
1.05494e-06
1.05494e-06
1.05494e-06
1.05807e-06
1.05842e-06
1.05808e-06
1.05494e-06
1.05494e-06
1.05494e-06
1.05494e-06
1.05494e-06
1.05494e-06
1.05814e-06
1.05977e-06
1.05961e-06
1.05767e-06
1.05494e-06
1.05494e-06
1.05494e-06
1.05494e-06
1.05769e-06
1.05828e-06
1.0599e-06
1.05981e-06
1.05829e-06
1.05817e-06
1.0581e-06
1.05807e-06
1.05814e-06
1.05827e-06
1.05972e-06
1.05987e-06
1.05961e-06
1.05842e-06
1.05977e-06
1.0599e-06
1.04395e-06
1.04381e-06
1.04371e-06
1.04211e-06
1.04202e-06
1.04198e-06
1.04207e-06
1.0436e-06
1.04381e-06
1.04371e-06
1.04165e-06
1.03894e-06
1.03894e-06
1.03894e-06
1.03894e-06
1.04167e-06
1.04228e-06
1.04211e-06
1.03894e-06
1.03894e-06
1.03894e-06
1.03894e-06
1.03894e-06
1.03894e-06
1.04216e-06
1.04386e-06
1.04394e-06
1.04202e-06
1.03894e-06
1.03894e-06
1.03894e-06
1.03894e-06
1.03894e-06
1.03894e-06
1.0421e-06
1.04361e-06
1.04381e-06
1.04198e-06
1.03894e-06
1.03894e-06
1.03894e-06
1.03894e-06
1.03894e-06
1.03894e-06
1.04207e-06
1.04242e-06
1.04207e-06
1.03894e-06
1.03894e-06
1.03894e-06
1.03894e-06
1.03894e-06
1.03894e-06
1.04213e-06
1.04377e-06
1.0436e-06
1.04167e-06
1.03894e-06
1.03894e-06
1.03894e-06
1.03894e-06
1.04169e-06
1.04227e-06
1.04389e-06
1.04381e-06
1.04228e-06
1.04216e-06
1.0421e-06
1.04207e-06
1.04213e-06
1.04227e-06
1.04371e-06
1.04386e-06
1.04361e-06
1.04242e-06
1.04377e-06
1.04389e-06
1.02794e-06
1.0278e-06
1.0277e-06
1.02611e-06
1.02601e-06
1.02597e-06
1.02607e-06
1.0276e-06
1.0278e-06
1.0277e-06
1.02564e-06
1.02293e-06
1.02293e-06
1.02293e-06
1.02293e-06
1.02566e-06
1.02628e-06
1.02611e-06
1.02293e-06
1.02293e-06
1.02293e-06
1.02293e-06
1.02293e-06
1.02293e-06
1.02616e-06
1.02785e-06
1.02794e-06
1.02601e-06
1.02293e-06
1.02293e-06
1.02293e-06
1.02293e-06
1.02293e-06
1.02293e-06
1.02609e-06
1.0276e-06
1.0278e-06
1.02597e-06
1.02293e-06
1.02293e-06
1.02293e-06
1.02293e-06
1.02293e-06
1.02293e-06
1.02606e-06
1.02641e-06
1.02607e-06
1.02293e-06
1.02293e-06
1.02293e-06
1.02293e-06
1.02293e-06
1.02293e-06
1.02613e-06
1.02776e-06
1.0276e-06
1.02566e-06
1.02293e-06
1.02293e-06
1.02293e-06
1.02293e-06
1.02568e-06
1.02627e-06
1.02789e-06
1.0278e-06
1.02628e-06
1.02616e-06
1.02609e-06
1.02606e-06
1.02613e-06
1.02626e-06
1.0277e-06
1.02785e-06