/*--------------------------------*- C++ -*----------------------------------*\
| =========                 |                                                 |
| \\      /  F ield         | OpenFOAM: The Open Source CFD Toolbox           |
|  \\    /   O peration     | Version:  v2012                                 |
|   \\  /    A nd           | Website:  www.openfoam.com                      |
|    \\/     M anipulation  |                                                 |
\*---------------------------------------------------------------------------*/
FoamFile
{
    version     2.0;
    format      ascii;
    class       volScalarField;
    location    "0.085";
    object      p;
}
// * * * * * * * * * * * * * * * * * * * * * * * * * * * * * * * * * * * * * //

dimensions      [0 2 -2 0 0 0 0];


internalField   nonuniform List<scalar> 
244288
(
2.31318e-06
2.31487e-06
2.31486e-06
2.31432e-06
2.3139e-06
2.31441e-06
2.31491e-06
2.31487e-06
2.31505e-06
2.31509e-06
2.31477e-06
2.31456e-06
2.31482e-06
2.31512e-06
2.31503e-06
2.31486e-06
2.31509e-06
2.31489e-06
2.3145e-06
2.31434e-06
2.31455e-06
2.31494e-06
2.31509e-06
2.31484e-06
2.31432e-06
2.31477e-06
2.3145e-06
2.31409e-06
2.31393e-06
2.31414e-06
2.31456e-06
2.31477e-06
2.31421e-06
2.31317e-06
2.3139e-06
2.31456e-06
2.31434e-06
2.31393e-06
2.31377e-06
2.31398e-06
2.31439e-06
2.31455e-06
2.31376e-06
2.31441e-06
2.31482e-06
2.31455e-06
2.31414e-06
2.31398e-06
2.31419e-06
2.31461e-06
2.31483e-06
2.31432e-06
2.31491e-06
2.31511e-06
2.31494e-06
2.31456e-06
2.31439e-06
2.31461e-06
2.31499e-06
2.31512e-06
2.3149e-06
2.31503e-06
2.31509e-06
2.31477e-06
2.31455e-06
2.31482e-06
2.31511e-06
2.315e-06
2.31484e-06
2.31421e-06
2.31376e-06
2.31431e-06
2.3149e-06
2.28012e-06
2.27846e-06
2.27951e-06
2.27775e-06
2.27739e-06
2.2773e-06
2.2774e-06
2.28036e-06
2.2801e-06
2.2795e-06
2.2769e-06
2.27395e-06
2.27378e-06
2.27379e-06
2.27396e-06
2.27864e-06
2.27795e-06
2.27774e-06
2.27395e-06
2.27376e-06
2.27372e-06
2.27373e-06
2.27376e-06
2.27395e-06
2.27888e-06
2.28105e-06
2.2801e-06
2.27739e-06
2.27378e-06
2.27372e-06
2.27375e-06
2.27375e-06
2.27373e-06
2.27379e-06
2.27839e-06
2.27974e-06
2.27843e-06
2.2773e-06
2.27378e-06
2.27372e-06
2.27375e-06
2.27375e-06
2.27373e-06
2.2738e-06
2.27833e-06
2.27693e-06
2.27739e-06
2.27395e-06
2.27376e-06
2.27373e-06
2.27373e-06
2.27377e-06
2.27396e-06
2.27855e-06
2.27868e-06
2.28035e-06
2.27864e-06
2.27395e-06
2.27379e-06
2.27379e-06
2.27396e-06
2.27935e-06
2.27873e-06
2.28112e-06
2.2801e-06
2.27795e-06
2.27887e-06
2.27838e-06
2.27832e-06
2.27855e-06
2.27872e-06
2.28152e-06
2.28104e-06
2.27974e-06
2.27694e-06
2.27867e-06
2.28112e-06
2.25854e-06
2.25835e-06
2.2584e-06
2.25565e-06
2.25566e-06
2.25554e-06
2.25574e-06
2.25945e-06
2.25919e-06
2.2584e-06
2.25462e-06
2.25133e-06
2.25091e-06
2.25089e-06
2.25131e-06
2.25764e-06
2.25676e-06
2.25565e-06
2.25133e-06
2.25017e-06
2.25012e-06
2.25011e-06
2.25014e-06
2.25134e-06
2.25881e-06
2.26017e-06
2.25845e-06
2.25568e-06
2.2509e-06
2.25011e-06
2.25013e-06
2.25013e-06
2.2501e-06
2.25088e-06
2.25865e-06
2.25897e-06
2.25825e-06
2.25553e-06
2.25089e-06
2.25011e-06
2.25012e-06
2.25012e-06
2.25011e-06
2.25089e-06
2.25842e-06
2.25573e-06
2.25572e-06
2.25129e-06
2.25014e-06
2.2501e-06
2.2501e-06
2.25014e-06
2.25132e-06
2.25888e-06
2.25974e-06
2.25944e-06
2.25763e-06
2.25133e-06
2.25088e-06
2.25087e-06
2.25132e-06
2.25965e-06
2.2579e-06
2.25986e-06
2.25918e-06
2.25675e-06
2.25881e-06
2.25865e-06
2.25842e-06
2.25888e-06
2.25794e-06
2.26052e-06
2.26016e-06
2.2589e-06
2.25576e-06
2.25975e-06
2.25984e-06
2.23504e-06
2.2349e-06
2.23499e-06
2.23191e-06
2.23199e-06
2.23173e-06
2.23219e-06
2.23604e-06
2.23585e-06
2.23499e-06
2.23016e-06
2.22727e-06
2.22711e-06
2.22711e-06
2.22731e-06
2.23366e-06
2.23358e-06
2.2319e-06
2.22726e-06
2.2269e-06
2.22686e-06
2.22686e-06
2.22691e-06
2.22729e-06
2.23556e-06
2.23682e-06
2.23502e-06
2.232e-06
2.2271e-06
2.22686e-06
2.22685e-06
2.22685e-06
2.22687e-06
2.22712e-06
2.23586e-06
2.23558e-06
2.23486e-06
2.23172e-06
2.22711e-06
2.22686e-06
2.22685e-06
2.22685e-06
2.22687e-06
2.22712e-06
2.23569e-06
2.23253e-06
2.23218e-06
2.22731e-06
2.2269e-06
2.22687e-06
2.22687e-06
2.22691e-06
2.22732e-06
2.23592e-06
2.23638e-06
2.23606e-06
2.23365e-06
2.22729e-06
2.22712e-06
2.22712e-06
2.22729e-06
2.23663e-06
2.23462e-06
2.2366e-06
2.23584e-06
2.23357e-06
2.23556e-06
2.23588e-06
2.2357e-06
2.23592e-06
2.23465e-06
2.237e-06
2.23678e-06
2.23559e-06
2.23256e-06
2.23637e-06
2.23663e-06
2.21138e-06
2.21124e-06
2.21101e-06
2.20784e-06
2.20793e-06
2.20753e-06
2.20817e-06
2.21204e-06
2.2118e-06
2.21101e-06
2.20557e-06
2.20298e-06
2.20294e-06
2.20294e-06
2.20299e-06
2.20928e-06
2.20967e-06
2.20784e-06
2.20297e-06
2.20289e-06
2.20289e-06
2.20289e-06
2.20289e-06
2.20298e-06
2.21172e-06
2.21298e-06
2.21137e-06
2.20791e-06
2.20294e-06
2.20288e-06
2.20288e-06
2.20288e-06
2.20289e-06
2.20294e-06
2.21239e-06
2.21201e-06
2.21125e-06
2.20752e-06
2.20293e-06
2.20289e-06
2.20289e-06
2.20289e-06
2.20289e-06
2.20294e-06
2.21228e-06
2.20903e-06
2.20818e-06
2.20299e-06
2.2029e-06
2.20289e-06
2.20289e-06
2.2029e-06
2.20299e-06
2.21226e-06
2.21274e-06
2.21203e-06
2.20928e-06
2.20298e-06
2.20295e-06
2.20294e-06
2.20298e-06
2.213e-06
2.2108e-06
2.21271e-06
2.2118e-06
2.20968e-06
2.21173e-06
2.2124e-06
2.2123e-06
2.21227e-06
2.21084e-06
2.213e-06
2.21301e-06
2.212e-06
2.20905e-06
2.21275e-06
2.21273e-06
2.1874e-06
2.18731e-06
2.18695e-06
2.18376e-06
2.18384e-06
2.18337e-06
2.1841e-06
2.18799e-06
2.18775e-06
2.18696e-06
2.18135e-06
2.17882e-06
2.17881e-06
2.17881e-06
2.17882e-06
2.18506e-06
2.18562e-06
2.18376e-06
2.17881e-06
2.1788e-06
2.1788e-06
2.1788e-06
2.1788e-06
2.17882e-06
2.18768e-06
2.18896e-06
2.18746e-06
2.18381e-06
2.17881e-06
2.1788e-06
2.1788e-06
2.1788e-06
2.1788e-06
2.17881e-06
2.18845e-06
2.18806e-06
2.18734e-06
2.18341e-06
2.17881e-06
2.1788e-06
2.1788e-06
2.1788e-06
2.1788e-06
2.17881e-06
2.18837e-06
2.18513e-06
2.18409e-06
2.17883e-06
2.1788e-06
2.1788e-06
2.1788e-06
2.1788e-06
2.17882e-06
2.18827e-06
2.18878e-06
2.18798e-06
2.18507e-06
2.17882e-06
2.17881e-06
2.17881e-06
2.17882e-06
2.18907e-06
2.1868e-06
2.18869e-06
2.18775e-06
2.18562e-06
2.18769e-06
2.18846e-06
2.18838e-06
2.18828e-06
2.18682e-06
2.18895e-06
2.18898e-06
2.18806e-06
2.18513e-06
2.18878e-06
2.1887e-06
2.16334e-06
2.16324e-06
2.16287e-06
2.15965e-06
2.15974e-06
2.15924e-06
2.16e-06
2.16389e-06
2.16364e-06
2.16286e-06
2.15722e-06
2.1547e-06
2.15469e-06
2.15469e-06
2.1547e-06
2.16094e-06
2.16153e-06
2.15966e-06
2.1547e-06
2.15469e-06
2.15469e-06
2.15469e-06
2.15469e-06
2.15469e-06
2.16359e-06
2.16486e-06
2.1634e-06
2.1597e-06
2.1547e-06
2.15469e-06
2.15469e-06
2.15469e-06
2.15469e-06
2.15469e-06
2.16438e-06
2.16398e-06
2.16324e-06
2.15928e-06
2.1547e-06
2.15469e-06
2.15469e-06
2.15469e-06
2.15469e-06
2.15469e-06
2.16431e-06
2.16107e-06
2.15999e-06
2.1547e-06
2.15469e-06
2.15469e-06
2.15469e-06
2.15469e-06
2.15469e-06
2.16419e-06
2.1647e-06
2.16387e-06
2.16094e-06
2.15469e-06
2.15469e-06
2.15469e-06
2.15469e-06
2.16501e-06
2.16273e-06
2.1646e-06
2.16364e-06
2.16152e-06
2.1636e-06
2.16439e-06
2.16432e-06
2.1642e-06
2.16274e-06
2.16485e-06
2.16488e-06
2.16398e-06
2.16107e-06
2.1647e-06
2.1646e-06
2.13924e-06
2.13915e-06
2.13876e-06
2.13555e-06
2.13563e-06
2.13514e-06
2.13589e-06
2.13978e-06
2.13953e-06
2.13875e-06
2.13307e-06
2.13058e-06
2.13058e-06
2.13058e-06
2.13058e-06
2.13682e-06
2.13742e-06
2.13554e-06
2.13058e-06
2.13058e-06
2.13058e-06
2.13058e-06
2.13058e-06
2.13058e-06
2.13949e-06
2.14076e-06
2.13927e-06
2.1356e-06
2.13058e-06
2.13058e-06
2.13058e-06
2.13058e-06
2.13058e-06
2.13058e-06
2.14029e-06
2.13988e-06
2.13917e-06
2.13512e-06
2.13058e-06
2.13058e-06
2.13058e-06
2.13058e-06
2.13058e-06
2.13058e-06
2.14021e-06
2.13696e-06
2.13589e-06
2.13058e-06
2.13058e-06
2.13058e-06
2.13058e-06
2.13058e-06
2.13058e-06
2.14009e-06
2.1406e-06
2.13978e-06
2.13681e-06
2.13058e-06
2.13058e-06
2.13058e-06
2.13058e-06
2.14091e-06
2.13862e-06
2.14049e-06
2.13954e-06
2.13742e-06
2.13949e-06
2.14029e-06
2.14022e-06
2.14009e-06
2.13863e-06
2.14075e-06
2.14078e-06
2.13989e-06
2.13698e-06
2.1406e-06
2.14048e-06
2.11513e-06
2.11503e-06
2.11464e-06
2.11143e-06
2.11152e-06
2.11101e-06
2.11177e-06
2.11567e-06
2.11542e-06
2.11463e-06
2.10895e-06
2.10646e-06
2.10646e-06
2.10646e-06
2.10646e-06
2.1127e-06
2.11331e-06
2.11141e-06
2.10646e-06
2.10646e-06
2.10646e-06
2.10646e-06
2.10646e-06
2.10646e-06
2.11538e-06
2.11665e-06
2.11506e-06
2.11152e-06
2.10646e-06
2.10646e-06
2.10646e-06
2.10646e-06
2.10646e-06
2.10646e-06
2.11618e-06
2.11577e-06
2.11497e-06
2.11106e-06
2.10646e-06
2.10646e-06
2.10646e-06
2.10646e-06
2.10646e-06
2.10646e-06
2.1161e-06
2.11286e-06
2.11176e-06
2.10646e-06
2.10646e-06
2.10646e-06
2.10646e-06
2.10646e-06
2.10646e-06
2.11598e-06
2.11649e-06
2.11567e-06
2.1127e-06
2.10647e-06
2.10646e-06
2.10646e-06
2.10646e-06
2.1168e-06
2.11452e-06
2.11638e-06
2.11542e-06
2.1133e-06
2.11538e-06
2.11618e-06
2.11611e-06
2.11598e-06
2.11452e-06
2.11664e-06
2.11667e-06
2.11577e-06
2.11286e-06
2.11649e-06
2.11637e-06
2.09101e-06
2.09092e-06
2.09053e-06
2.08732e-06
2.0874e-06
2.0869e-06
2.08766e-06
2.09156e-06
2.09131e-06
2.09051e-06
2.08484e-06
2.08235e-06
2.08235e-06
2.08235e-06
2.08235e-06
2.08858e-06
2.0892e-06
2.08731e-06
2.08235e-06
2.08235e-06
2.08235e-06
2.08235e-06
2.08235e-06
2.08235e-06
2.09126e-06
2.09253e-06
2.09095e-06
2.0874e-06
2.08235e-06
2.08235e-06
2.08235e-06
2.08235e-06
2.08235e-06
2.08235e-06
2.09206e-06
2.09166e-06
2.09083e-06
2.08693e-06
2.08235e-06
2.08235e-06
2.08235e-06
2.08235e-06
2.08235e-06
2.08235e-06
2.09199e-06
2.08875e-06
2.08763e-06
2.08235e-06
2.08235e-06
2.08235e-06
2.08235e-06
2.08235e-06
2.08235e-06
2.09187e-06
2.09238e-06
2.09155e-06
2.08859e-06
2.08235e-06
2.08235e-06
2.08235e-06
2.08235e-06
2.0927e-06
2.09041e-06
2.09227e-06
2.09131e-06
2.08919e-06
2.09127e-06
2.09207e-06
2.092e-06
2.09187e-06
2.09041e-06
2.09252e-06
2.09256e-06
2.09166e-06
2.08876e-06
2.09237e-06
2.09225e-06
2.0669e-06
2.06681e-06
2.06642e-06
2.0632e-06
2.06329e-06
2.06278e-06
2.06355e-06
2.06744e-06
2.0672e-06
2.0664e-06
2.06073e-06
2.05824e-06
2.05824e-06
2.05824e-06
2.05824e-06
2.06447e-06
2.06508e-06
2.06318e-06
2.05824e-06
2.05824e-06
2.05824e-06
2.05824e-06
2.05824e-06
2.05824e-06
2.06715e-06
2.06842e-06
2.06682e-06
2.06328e-06
2.05824e-06
2.05824e-06
2.05824e-06
2.05824e-06
2.05824e-06
2.05824e-06
2.06795e-06
2.06755e-06
2.06676e-06
2.06282e-06
2.05824e-06
2.05824e-06
2.05824e-06
2.05824e-06
2.05824e-06
2.05824e-06
2.06788e-06
2.06464e-06
2.06354e-06
2.05824e-06
2.05823e-06
2.05824e-06
2.05824e-06
2.05824e-06
2.05824e-06
2.06776e-06
2.06826e-06
2.06743e-06
2.06448e-06
2.05823e-06
2.05824e-06
2.05824e-06
2.05824e-06
2.06858e-06
2.0663e-06
2.06815e-06
2.0672e-06
2.06507e-06
2.06715e-06
2.06795e-06
2.06788e-06
2.06776e-06
2.0663e-06
2.06841e-06
2.06844e-06
2.06755e-06
2.06464e-06
2.06827e-06
2.06815e-06
2.04278e-06
2.04269e-06
2.0423e-06
2.03909e-06
2.03918e-06
2.03867e-06
2.03943e-06
2.04333e-06
2.04308e-06
2.04229e-06
2.03661e-06
2.03412e-06
2.03412e-06
2.03412e-06
2.03412e-06
2.04036e-06
2.04097e-06
2.03908e-06
2.03412e-06
2.03412e-06
2.03412e-06
2.03412e-06
2.03412e-06
2.03412e-06
2.04304e-06
2.04431e-06
2.04278e-06
2.03917e-06
2.03412e-06
2.03412e-06
2.03412e-06
2.03412e-06
2.03412e-06
2.03412e-06
2.04384e-06
2.04344e-06
2.04269e-06
2.03867e-06
2.03412e-06
2.03412e-06
2.03412e-06
2.03412e-06
2.03412e-06
2.03412e-06
2.04377e-06
2.04053e-06
2.03944e-06
2.03412e-06
2.03412e-06
2.03412e-06
2.03412e-06
2.03412e-06
2.03412e-06
2.04364e-06
2.04415e-06
2.04332e-06
2.04036e-06
2.03412e-06
2.03412e-06
2.03412e-06
2.03412e-06
2.04447e-06
2.04218e-06
2.04404e-06
2.04308e-06
2.04096e-06
2.04304e-06
2.04384e-06
2.04377e-06
2.04365e-06
2.04218e-06
2.0443e-06
2.04433e-06
2.04343e-06
2.04052e-06
2.04416e-06
2.04404e-06
2.01867e-06
2.01858e-06
2.01819e-06
2.01497e-06
2.01506e-06
2.01456e-06
2.01532e-06
2.01922e-06
2.01897e-06
2.01817e-06
2.0125e-06
2.01001e-06
2.01001e-06
2.01001e-06
2.01001e-06
2.01624e-06
2.01685e-06
2.01498e-06
2.01001e-06
2.01001e-06
2.01001e-06
2.01001e-06
2.01001e-06
2.01001e-06
2.01892e-06
2.02019e-06
2.01869e-06
2.01503e-06
2.01001e-06
2.01001e-06
2.01001e-06
2.01001e-06
2.01001e-06
2.01001e-06
2.01972e-06
2.01932e-06
2.01858e-06
2.0146e-06
2.01001e-06
2.01001e-06
2.01001e-06
2.01001e-06
2.01001e-06
2.01001e-06
2.01965e-06
2.01641e-06
2.0153e-06
2.01001e-06
2.01001e-06
2.01001e-06
2.01001e-06
2.01001e-06
2.01001e-06
2.01953e-06
2.02003e-06
2.0192e-06
2.01624e-06
2.01001e-06
2.01001e-06
2.01001e-06
2.01001e-06
2.02036e-06
2.01807e-06
2.01993e-06
2.01896e-06
2.01685e-06
2.01892e-06
2.01972e-06
2.01966e-06
2.01953e-06
2.01807e-06
2.02018e-06
2.02021e-06
2.01932e-06
2.01641e-06
2.02004e-06
2.01992e-06
1.99456e-06
1.99447e-06
1.99408e-06
1.99086e-06
1.99095e-06
1.99044e-06
1.99121e-06
1.9951e-06
1.99486e-06
1.99407e-06
1.9884e-06
1.98589e-06
1.98589e-06
1.98589e-06
1.98589e-06
1.99213e-06
1.99274e-06
1.99086e-06
1.98589e-06
1.98589e-06
1.98589e-06
1.98589e-06
1.98589e-06
1.98589e-06
1.99481e-06
1.99607e-06
1.99467e-06
1.99089e-06
1.98589e-06
1.9859e-06
1.98589e-06
1.98589e-06
1.98589e-06
1.98589e-06
1.99561e-06
1.9952e-06
1.99443e-06
1.9905e-06
1.9859e-06
1.9859e-06
1.98589e-06
1.9859e-06
1.9859e-06
1.9859e-06
1.99554e-06
1.9923e-06
1.9912e-06
1.98589e-06
1.9859e-06
1.98589e-06
1.9859e-06
1.9859e-06
1.9859e-06
1.99542e-06
1.99592e-06
1.99509e-06
1.99213e-06
1.98589e-06
1.98589e-06
1.98589e-06
1.98589e-06
1.99624e-06
1.99396e-06
1.99581e-06
1.99485e-06
1.99273e-06
1.99481e-06
1.99561e-06
1.99555e-06
1.99542e-06
1.99396e-06
1.99607e-06
1.9961e-06
1.9952e-06
1.9923e-06
1.99593e-06
1.99581e-06
1.97044e-06
1.97035e-06
1.96996e-06
1.96675e-06
1.96684e-06
1.96633e-06
1.96709e-06
1.97099e-06
1.97074e-06
1.96995e-06
1.96427e-06
1.96178e-06
1.96178e-06
1.96178e-06
1.96178e-06
1.96802e-06
1.96863e-06
1.96675e-06
1.96178e-06
1.96178e-06
1.96178e-06
1.96178e-06
1.96178e-06
1.96178e-06
1.97069e-06
1.97197e-06
1.97051e-06
1.9668e-06
1.96178e-06
1.96178e-06
1.96178e-06
1.96178e-06
1.96178e-06
1.96178e-06
1.97149e-06
1.97109e-06
1.97042e-06
1.96636e-06
1.96178e-06
1.96178e-06
1.96178e-06
1.96178e-06
1.96178e-06
1.96178e-06
1.97143e-06
1.96818e-06
1.96708e-06
1.96178e-06
1.96178e-06
1.96178e-06
1.96178e-06
1.96178e-06
1.96178e-06
1.9713e-06
1.97181e-06
1.97097e-06
1.96801e-06
1.96178e-06
1.96178e-06
1.96178e-06
1.96178e-06
1.97213e-06
1.96984e-06
1.9717e-06
1.97074e-06
1.96862e-06
1.9707e-06
1.9715e-06
1.97144e-06
1.9713e-06
1.96984e-06
1.97196e-06
1.97198e-06
1.97109e-06
1.96818e-06
1.97181e-06
1.97169e-06
1.94633e-06
1.94625e-06
1.94584e-06
1.94263e-06
1.94271e-06
1.94221e-06
1.94298e-06
1.94688e-06
1.94663e-06
1.94583e-06
1.94016e-06
1.93767e-06
1.93767e-06
1.93767e-06
1.93767e-06
1.9439e-06
1.94451e-06
1.94262e-06
1.93767e-06
1.93767e-06
1.93767e-06
1.93767e-06
1.93767e-06
1.93767e-06
1.94658e-06
1.94785e-06
1.94633e-06
1.94271e-06
1.93767e-06
1.93767e-06
1.93767e-06
1.93767e-06
1.93767e-06
1.93767e-06
1.94738e-06
1.94698e-06
1.9462e-06
1.94222e-06
1.93767e-06
1.93767e-06
1.93767e-06
1.93767e-06
1.93767e-06
1.93767e-06
1.94731e-06
1.94407e-06
1.94298e-06
1.93767e-06
1.93767e-06
1.93767e-06
1.93767e-06
1.93767e-06
1.93767e-06
1.94719e-06
1.9477e-06
1.94689e-06
1.9439e-06
1.93767e-06
1.93767e-06
1.93767e-06
1.93767e-06
1.94801e-06
1.94573e-06
1.94759e-06
1.94664e-06
1.94451e-06
1.94659e-06
1.94738e-06
1.94732e-06
1.94719e-06
1.94573e-06
1.94784e-06
1.94787e-06
1.94698e-06
1.94407e-06
1.9477e-06
1.94758e-06
1.92222e-06
1.92212e-06
1.92173e-06
1.91852e-06
1.91861e-06
1.9181e-06
1.91887e-06
1.92276e-06
1.92251e-06
1.92172e-06
1.91605e-06
1.91355e-06
1.91355e-06
1.91355e-06
1.91355e-06
1.91979e-06
1.9204e-06
1.91851e-06
1.91355e-06
1.91355e-06
1.91355e-06
1.91355e-06
1.91355e-06
1.91355e-06
1.92247e-06
1.92374e-06
1.92221e-06
1.91858e-06
1.91355e-06
1.91355e-06
1.91355e-06
1.91355e-06
1.91355e-06
1.91355e-06
1.92327e-06
1.92287e-06
1.92214e-06
1.9181e-06
1.91355e-06
1.91355e-06
1.91355e-06
1.91355e-06
1.91355e-06
1.91355e-06
1.9232e-06
1.91996e-06
1.91887e-06
1.91356e-06
1.91355e-06
1.91355e-06
1.91355e-06
1.91355e-06
1.91355e-06
1.92307e-06
1.92358e-06
1.92276e-06
1.91979e-06
1.91356e-06
1.91356e-06
1.91356e-06
1.91356e-06
1.9239e-06
1.92161e-06
1.92347e-06
1.92252e-06
1.9204e-06
1.92247e-06
1.92326e-06
1.92321e-06
1.92307e-06
1.92162e-06
1.92372e-06
1.92376e-06
1.92286e-06
1.91994e-06
1.92358e-06
1.92346e-06
1.8981e-06
1.89801e-06
1.89762e-06
1.89441e-06
1.8945e-06
1.89399e-06
1.89475e-06
1.89865e-06
1.8984e-06
1.8976e-06
1.89193e-06
1.88944e-06
1.88944e-06
1.88944e-06
1.88944e-06
1.89568e-06
1.89629e-06
1.8944e-06
1.88944e-06
1.88944e-06
1.88944e-06
1.88944e-06
1.88944e-06
1.88944e-06
1.89835e-06
1.89963e-06
1.89813e-06
1.89449e-06
1.88944e-06
1.88944e-06
1.88944e-06
1.88944e-06
1.88944e-06
1.88944e-06
1.89916e-06
1.89875e-06
1.89803e-06
1.89399e-06
1.88944e-06
1.88944e-06
1.88944e-06
1.88944e-06
1.88944e-06
1.88944e-06
1.89909e-06
1.89584e-06
1.89476e-06
1.88944e-06
1.88944e-06
1.88944e-06
1.88944e-06
1.88944e-06
1.88944e-06
1.89896e-06
1.89947e-06
1.89865e-06
1.89568e-06
1.88944e-06
1.88944e-06
1.88944e-06
1.88944e-06
1.89979e-06
1.8975e-06
1.89936e-06
1.8984e-06
1.89628e-06
1.89835e-06
1.89914e-06
1.89909e-06
1.89895e-06
1.89751e-06
1.89962e-06
1.89964e-06
1.89881e-06
1.89579e-06
1.89944e-06
1.89935e-06
1.87399e-06
1.8739e-06
1.87351e-06
1.87029e-06
1.87038e-06
1.86987e-06
1.87064e-06
1.87453e-06
1.87429e-06
1.87349e-06
1.86782e-06
1.86533e-06
1.86533e-06
1.86533e-06
1.86533e-06
1.87156e-06
1.87217e-06
1.87029e-06
1.86533e-06
1.86533e-06
1.86533e-06
1.86533e-06
1.86533e-06
1.86533e-06
1.87424e-06
1.87551e-06
1.87398e-06
1.8704e-06
1.86533e-06
1.86533e-06
1.86533e-06
1.86533e-06
1.86533e-06
1.86533e-06
1.87504e-06
1.87464e-06
1.87386e-06
1.86988e-06
1.86533e-06
1.86533e-06
1.86533e-06
1.86533e-06
1.86533e-06
1.86533e-06
1.87497e-06
1.87173e-06
1.87064e-06
1.86533e-06
1.86533e-06
1.86533e-06
1.86533e-06
1.86533e-06
1.86533e-06
1.87485e-06
1.87535e-06
1.87453e-06
1.87157e-06
1.86533e-06
1.86533e-06
1.86533e-06
1.86533e-06
1.87567e-06
1.87338e-06
1.87524e-06
1.87429e-06
1.87217e-06
1.87424e-06
1.87504e-06
1.87499e-06
1.87484e-06
1.87339e-06
1.87549e-06
1.87554e-06
1.8747e-06
1.87172e-06
1.87534e-06
1.8752e-06
1.84988e-06
1.84978e-06
1.84939e-06
1.84618e-06
1.84627e-06
1.84576e-06
1.84652e-06
1.85042e-06
1.85017e-06
1.84938e-06
1.8437e-06
1.84121e-06
1.84121e-06
1.84121e-06
1.84121e-06
1.84745e-06
1.84806e-06
1.84617e-06
1.84121e-06
1.84121e-06
1.84121e-06
1.84121e-06
1.84121e-06
1.84121e-06
1.85013e-06
1.8514e-06
1.84987e-06
1.84627e-06
1.84121e-06
1.84121e-06
1.84121e-06
1.84121e-06
1.84121e-06
1.84121e-06
1.85093e-06
1.85052e-06
1.84976e-06
1.84576e-06
1.84121e-06
1.84121e-06
1.84121e-06
1.84121e-06
1.84121e-06
1.84121e-06
1.85086e-06
1.84761e-06
1.84652e-06
1.84121e-06
1.84121e-06
1.84121e-06
1.84121e-06
1.84121e-06
1.84121e-06
1.85073e-06
1.85124e-06
1.85042e-06
1.84745e-06
1.84121e-06
1.84121e-06
1.84121e-06
1.84121e-06
1.85157e-06
1.84927e-06
1.85113e-06
1.85017e-06
1.84805e-06
1.85012e-06
1.85092e-06
1.8509e-06
1.85074e-06
1.84928e-06
1.85139e-06
1.85139e-06
1.85047e-06
1.84766e-06
1.85126e-06
1.85113e-06
1.82576e-06
1.82566e-06
1.82528e-06
1.82207e-06
1.82216e-06
1.82165e-06
1.8224e-06
1.8263e-06
1.82606e-06
1.82526e-06
1.81959e-06
1.8171e-06
1.8171e-06
1.8171e-06
1.8171e-06
1.82333e-06
1.82394e-06
1.82205e-06
1.81709e-06
1.8171e-06
1.8171e-06
1.8171e-06
1.8171e-06
1.8171e-06
1.82601e-06
1.82728e-06
1.82575e-06
1.82214e-06
1.81709e-06
1.8171e-06
1.8171e-06
1.8171e-06
1.8171e-06
1.8171e-06
1.82681e-06
1.82641e-06
1.82565e-06
1.82164e-06
1.81709e-06
1.8171e-06
1.8171e-06
1.8171e-06
1.8171e-06
1.8171e-06
1.82674e-06
1.8235e-06
1.82241e-06
1.8171e-06
1.8171e-06
1.8171e-06
1.8171e-06
1.8171e-06
1.8171e-06
1.82662e-06
1.82712e-06
1.82631e-06
1.82333e-06
1.8171e-06
1.8171e-06
1.8171e-06
1.8171e-06
1.82745e-06
1.82516e-06
1.82701e-06
1.82606e-06
1.82393e-06
1.82601e-06
1.82681e-06
1.82679e-06
1.82663e-06
1.82517e-06
1.82727e-06
1.82725e-06
1.82635e-06
1.82358e-06
1.82713e-06
1.82702e-06
1.80165e-06
1.80154e-06
1.80116e-06
1.79795e-06
1.79804e-06
1.79753e-06
1.79829e-06
1.80219e-06
1.80194e-06
1.80115e-06
1.79547e-06
1.79298e-06
1.79298e-06
1.79298e-06
1.79298e-06
1.79922e-06
1.79983e-06
1.79794e-06
1.79298e-06
1.79298e-06
1.79298e-06
1.79298e-06
1.79298e-06
1.79298e-06
1.8019e-06
1.80317e-06
1.80165e-06
1.79803e-06
1.79298e-06
1.79298e-06
1.79298e-06
1.79298e-06
1.79298e-06
1.79298e-06
1.8027e-06
1.8023e-06
1.80156e-06
1.79753e-06
1.79298e-06
1.79298e-06
1.79298e-06
1.79298e-06
1.79298e-06
1.79298e-06
1.80262e-06
1.79938e-06
1.7983e-06
1.79298e-06
1.79298e-06
1.79298e-06
1.79298e-06
1.79298e-06
1.79298e-06
1.8025e-06
1.80301e-06
1.80219e-06
1.79922e-06
1.79298e-06
1.79298e-06
1.79298e-06
1.79298e-06
1.80333e-06
1.80104e-06
1.8029e-06
1.80195e-06
1.79983e-06
1.8019e-06
1.80269e-06
1.80264e-06
1.80249e-06
1.80104e-06
1.80315e-06
1.80318e-06
1.80234e-06
1.79933e-06
1.80297e-06
1.8029e-06
1.77753e-06
1.77743e-06
1.77705e-06
1.77383e-06
1.77393e-06
1.77342e-06
1.77418e-06
1.77807e-06
1.77783e-06
1.77703e-06
1.77136e-06
1.76887e-06
1.76887e-06
1.76887e-06
1.76887e-06
1.7751e-06
1.77571e-06
1.77383e-06
1.76887e-06
1.76887e-06
1.76887e-06
1.76887e-06
1.76887e-06
1.76887e-06
1.77778e-06
1.77905e-06
1.77752e-06
1.77391e-06
1.76887e-06
1.76887e-06
1.76887e-06
1.76887e-06
1.76887e-06
1.76887e-06
1.77858e-06
1.77818e-06
1.77744e-06
1.77342e-06
1.76887e-06
1.76887e-06
1.76887e-06
1.76887e-06
1.76887e-06
1.76887e-06
1.77851e-06
1.77527e-06
1.77419e-06
1.76887e-06
1.76887e-06
1.76887e-06
1.76887e-06
1.76887e-06
1.76887e-06
1.77839e-06
1.7789e-06
1.77808e-06
1.77511e-06
1.76887e-06
1.76887e-06
1.76887e-06
1.76887e-06
1.77921e-06
1.77693e-06
1.77879e-06
1.77784e-06
1.77572e-06
1.77779e-06
1.77859e-06
1.77854e-06
1.77838e-06
1.77693e-06
1.77904e-06
1.77909e-06
1.77824e-06
1.77526e-06
1.77888e-06
1.77874e-06
1.7534e-06
1.75331e-06
1.75293e-06
1.74972e-06
1.74981e-06
1.7493e-06
1.75006e-06
1.75397e-06
1.75372e-06
1.75292e-06
1.74725e-06
1.74476e-06
1.74475e-06
1.74475e-06
1.74476e-06
1.75099e-06
1.7516e-06
1.74971e-06
1.74476e-06
1.74475e-06
1.74475e-06
1.74475e-06
1.74475e-06
1.74476e-06
1.75367e-06
1.75494e-06
1.75342e-06
1.74981e-06
1.74476e-06
1.74475e-06
1.74475e-06
1.74475e-06
1.74475e-06
1.74476e-06
1.75447e-06
1.75407e-06
1.75332e-06
1.7493e-06
1.74475e-06
1.74475e-06
1.74475e-06
1.74476e-06
1.74476e-06
1.74476e-06
1.7544e-06
1.75116e-06
1.75007e-06
1.74475e-06
1.74475e-06
1.74476e-06
1.74475e-06
1.74475e-06
1.74476e-06
1.75428e-06
1.75478e-06
1.75396e-06
1.75099e-06
1.74475e-06
1.74475e-06
1.74475e-06
1.74475e-06
1.75511e-06
1.75281e-06
1.75467e-06
1.75372e-06
1.75159e-06
1.75366e-06
1.75446e-06
1.75443e-06
1.75428e-06
1.75282e-06
1.75493e-06
1.75493e-06
1.75403e-06
1.75119e-06
1.75479e-06
1.75468e-06
1.72929e-06
1.7292e-06
1.72882e-06
1.72561e-06
1.72568e-06
1.72519e-06
1.72595e-06
1.72986e-06
1.72961e-06
1.7288e-06
1.72313e-06
1.72064e-06
1.72064e-06
1.72064e-06
1.72064e-06
1.72688e-06
1.72749e-06
1.7256e-06
1.72064e-06
1.72064e-06
1.72064e-06
1.72064e-06
1.72064e-06
1.72064e-06
1.72956e-06
1.73083e-06
1.72931e-06
1.72568e-06
1.72064e-06
1.72064e-06
1.72064e-06
1.72064e-06
1.72064e-06
1.72064e-06
1.73036e-06
1.72995e-06
1.72922e-06
1.72519e-06
1.72064e-06
1.72064e-06
1.72064e-06
1.72064e-06
1.72064e-06
1.72064e-06
1.73029e-06
1.72705e-06
1.72595e-06
1.72064e-06
1.72064e-06
1.72064e-06
1.72064e-06
1.72064e-06
1.72064e-06
1.73016e-06
1.73067e-06
1.72985e-06
1.72687e-06
1.72064e-06
1.72064e-06
1.72064e-06
1.72064e-06
1.731e-06
1.7287e-06
1.73056e-06
1.7296e-06
1.72748e-06
1.72954e-06
1.73034e-06
1.73032e-06
1.73017e-06
1.72871e-06
1.73082e-06
1.73081e-06
1.72987e-06
1.72711e-06
1.73068e-06
1.73057e-06
1.7052e-06
1.70511e-06
1.70471e-06
1.70149e-06
1.70156e-06
1.70107e-06
1.70184e-06
1.70574e-06
1.70549e-06
1.70469e-06
1.69902e-06
1.69653e-06
1.69653e-06
1.69653e-06
1.69653e-06
1.70277e-06
1.70338e-06
1.70149e-06
1.69653e-06
1.69653e-06
1.69653e-06
1.69653e-06
1.69653e-06
1.69653e-06
1.70544e-06
1.70672e-06
1.70521e-06
1.70158e-06
1.69653e-06
1.69653e-06
1.69653e-06
1.69653e-06
1.69653e-06
1.69653e-06
1.70624e-06
1.70584e-06
1.7051e-06
1.70107e-06
1.69653e-06
1.69653e-06
1.69653e-06
1.69653e-06
1.69653e-06
1.69653e-06
1.70617e-06
1.70293e-06
1.70184e-06
1.69653e-06
1.69653e-06
1.69653e-06
1.69653e-06
1.69653e-06
1.69653e-06
1.70605e-06
1.70656e-06
1.70573e-06
1.70275e-06
1.69653e-06
1.69653e-06
1.69653e-06
1.69653e-06
1.70688e-06
1.70459e-06
1.70645e-06
1.70549e-06
1.70336e-06
1.70544e-06
1.70625e-06
1.7062e-06
1.70605e-06
1.70459e-06
1.7067e-06
1.70672e-06
1.70579e-06
1.70297e-06
1.70657e-06
1.70645e-06
1.68109e-06
1.68099e-06
1.68059e-06
1.67738e-06
1.67746e-06
1.67696e-06
1.67773e-06
1.68163e-06
1.68138e-06
1.68058e-06
1.6749e-06
1.67242e-06
1.67242e-06
1.67242e-06
1.67242e-06
1.67865e-06
1.67926e-06
1.67738e-06
1.67241e-06
1.67242e-06
1.67242e-06
1.67242e-06
1.67242e-06
1.67242e-06
1.68133e-06
1.6826e-06
1.68108e-06
1.67748e-06
1.67241e-06
1.67242e-06
1.67242e-06
1.67242e-06
1.67242e-06
1.67242e-06
1.68213e-06
1.68173e-06
1.68099e-06
1.67697e-06
1.67241e-06
1.67242e-06
1.67242e-06
1.67242e-06
1.67242e-06
1.67242e-06
1.68206e-06
1.67882e-06
1.67772e-06
1.67241e-06
1.67241e-06
1.67242e-06
1.67241e-06
1.67241e-06
1.67241e-06
1.68193e-06
1.68244e-06
1.68162e-06
1.67864e-06
1.67242e-06
1.67242e-06
1.67242e-06
1.67242e-06
1.68276e-06
1.68047e-06
1.68233e-06
1.68137e-06
1.67925e-06
1.68133e-06
1.68214e-06
1.68207e-06
1.68193e-06
1.68048e-06
1.68259e-06
1.68262e-06
1.68173e-06
1.67882e-06
1.68244e-06
1.68232e-06
1.65696e-06
1.65687e-06
1.65648e-06
1.65327e-06
1.65336e-06
1.65285e-06
1.65361e-06
1.65751e-06
1.65726e-06
1.65647e-06
1.65079e-06
1.6483e-06
1.6483e-06
1.6483e-06
1.6483e-06
1.65454e-06
1.65515e-06
1.65325e-06
1.6483e-06
1.6483e-06
1.6483e-06
1.6483e-06
1.6483e-06
1.6483e-06
1.65722e-06
1.65849e-06
1.65693e-06
1.65335e-06
1.6483e-06
1.6483e-06
1.6483e-06
1.6483e-06
1.6483e-06
1.6483e-06
1.65802e-06
1.65762e-06
1.65681e-06
1.65289e-06
1.6483e-06
1.6483e-06
1.6483e-06
1.6483e-06
1.6483e-06
1.6483e-06
1.65795e-06
1.6547e-06
1.6536e-06
1.6483e-06
1.6483e-06
1.6483e-06
1.6483e-06
1.6483e-06
1.6483e-06
1.65782e-06
1.65833e-06
1.65751e-06
1.65453e-06
1.6483e-06
1.6483e-06
1.6483e-06
1.6483e-06
1.65865e-06
1.65636e-06
1.65822e-06
1.65727e-06
1.65514e-06
1.65722e-06
1.65802e-06
1.65795e-06
1.65782e-06
1.65636e-06
1.65848e-06
1.65851e-06
1.65761e-06
1.6547e-06
1.65833e-06
1.65821e-06
1.63285e-06
1.63276e-06
1.63237e-06
1.62916e-06
1.62924e-06
1.62873e-06
1.6295e-06
1.63339e-06
1.63315e-06
1.63236e-06
1.62668e-06
1.62419e-06
1.62419e-06
1.62419e-06
1.62419e-06
1.63042e-06
1.63103e-06
1.62915e-06
1.62419e-06
1.62419e-06
1.62419e-06
1.62419e-06
1.62419e-06
1.62419e-06
1.6331e-06
1.63437e-06
1.63277e-06
1.62924e-06
1.62419e-06
1.62419e-06
1.62419e-06
1.62419e-06
1.62419e-06
1.62419e-06
1.6339e-06
1.6335e-06
1.63267e-06
1.62878e-06
1.62419e-06
1.62419e-06
1.62419e-06
1.62419e-06
1.62419e-06
1.62419e-06
1.63383e-06
1.63059e-06
1.62947e-06
1.62419e-06
1.62419e-06
1.62419e-06
1.62419e-06
1.62419e-06
1.62419e-06
1.63371e-06
1.63422e-06
1.63339e-06
1.63041e-06
1.62419e-06
1.62419e-06
1.62419e-06
1.62419e-06
1.63453e-06
1.63225e-06
1.6341e-06
1.63315e-06
1.63102e-06
1.6331e-06
1.63391e-06
1.63384e-06
1.63371e-06
1.63225e-06
1.63436e-06
1.63439e-06
1.6335e-06
1.63059e-06
1.63421e-06
1.6341e-06
1.60874e-06
1.60864e-06
1.60826e-06
1.60504e-06
1.60513e-06
1.60462e-06
1.60539e-06
1.60928e-06
1.60904e-06
1.60823e-06
1.60256e-06
1.60007e-06
1.60007e-06
1.60007e-06
1.60007e-06
1.60631e-06
1.60692e-06
1.60503e-06
1.60007e-06
1.60007e-06
1.60007e-06
1.60007e-06
1.60007e-06
1.60007e-06
1.60899e-06
1.61026e-06
1.60868e-06
1.60511e-06
1.60007e-06
1.60007e-06
1.60007e-06
1.60007e-06
1.60007e-06
1.60007e-06
1.60979e-06
1.60939e-06
1.60863e-06
1.60465e-06
1.60007e-06
1.60007e-06
1.60007e-06
1.60007e-06
1.60007e-06
1.60007e-06
1.60972e-06
1.60648e-06
1.60537e-06
1.60007e-06
1.60007e-06
1.60007e-06
1.60007e-06
1.60007e-06
1.60007e-06
1.60959e-06
1.6101e-06
1.60928e-06
1.60632e-06
1.60007e-06
1.60007e-06
1.60007e-06
1.60007e-06
1.61042e-06
1.60813e-06
1.60999e-06
1.60904e-06
1.60692e-06
1.60899e-06
1.60979e-06
1.60972e-06
1.60959e-06
1.60813e-06
1.61025e-06
1.61028e-06
1.60939e-06
1.60648e-06
1.6101e-06
1.60998e-06
1.58462e-06
1.58453e-06
1.58414e-06
1.58093e-06
1.58101e-06
1.58051e-06
1.58127e-06
1.58517e-06
1.58492e-06
1.58413e-06
1.57845e-06
1.57596e-06
1.57596e-06
1.57596e-06
1.57596e-06
1.5822e-06
1.58281e-06
1.58092e-06
1.57596e-06
1.57596e-06
1.57596e-06
1.57596e-06
1.57596e-06
1.57596e-06
1.58487e-06
1.58615e-06
1.58462e-06
1.58103e-06
1.57596e-06
1.57596e-06
1.57596e-06
1.57596e-06
1.57596e-06
1.57596e-06
1.58568e-06
1.58527e-06
1.58452e-06
1.58052e-06
1.57596e-06
1.57596e-06
1.57596e-06
1.57596e-06
1.57596e-06
1.57596e-06
1.5856e-06
1.58236e-06
1.58126e-06
1.57596e-06
1.57596e-06
1.57596e-06
1.57596e-06
1.57596e-06
1.57596e-06
1.58548e-06
1.58599e-06
1.58516e-06
1.5822e-06
1.57596e-06
1.57596e-06
1.57596e-06
1.57596e-06
1.58631e-06
1.58402e-06
1.58588e-06
1.58492e-06
1.5828e-06
1.58487e-06
1.58567e-06
1.58561e-06
1.58548e-06
1.58402e-06
1.58614e-06
1.58616e-06
1.58527e-06
1.58236e-06
1.586e-06
1.58588e-06
1.56051e-06
1.56042e-06
1.56003e-06
1.55681e-06
1.5569e-06
1.55639e-06
1.55716e-06
1.56105e-06
1.56081e-06
1.56001e-06
1.55434e-06
1.55185e-06
1.55185e-06
1.55185e-06
1.55185e-06
1.55808e-06
1.55869e-06
1.55681e-06
1.55184e-06
1.55185e-06
1.55185e-06
1.55185e-06
1.55185e-06
1.55185e-06
1.56076e-06
1.56203e-06
1.5605e-06
1.5569e-06
1.55184e-06
1.55185e-06
1.55185e-06
1.55185e-06
1.55185e-06
1.55185e-06
1.56156e-06
1.56116e-06
1.56041e-06
1.5564e-06
1.55184e-06
1.55184e-06
1.55185e-06
1.55185e-06
1.55185e-06
1.55185e-06
1.56149e-06
1.55825e-06
1.55715e-06
1.55184e-06
1.55184e-06
1.55184e-06
1.55185e-06
1.55185e-06
1.55185e-06
1.56137e-06
1.56187e-06
1.56105e-06
1.55808e-06
1.55184e-06
1.55184e-06
1.55185e-06
1.55185e-06
1.56219e-06
1.5599e-06
1.56176e-06
1.5608e-06
1.55868e-06
1.56076e-06
1.56156e-06