/*--------------------------------*- C++ -*----------------------------------*\
| =========                 |                                                 |
| \\      /  F ield         | OpenFOAM: The Open Source CFD Toolbox           |
|  \\    /   O peration     | Version:  v2012                                 |
|   \\  /    A nd           | Website:  www.openfoam.com                      |
|    \\/     M anipulation  |                                                 |
\*---------------------------------------------------------------------------*/
FoamFile
{
    version     2.0;
    format      ascii;
    class       volScalarField;
    location    "0.025";
    object      p;
}
// * * * * * * * * * * * * * * * * * * * * * * * * * * * * * * * * * * * * * //

dimensions      [0 2 -2 0 0 0 0];


internalField   nonuniform List<scalar> 
244288
(
2.91652e-06
2.91986e-06
2.91938e-06
2.9185e-06
2.91782e-06
2.91865e-06
2.91959e-06
2.91985e-06
2.92034e-06
2.92031e-06
2.91977e-06
2.91941e-06
2.9199e-06
2.92043e-06
2.92038e-06
2.91937e-06
2.92031e-06
2.92021e-06
2.91976e-06
2.91955e-06
2.91985e-06
2.92032e-06
2.92034e-06
2.91927e-06
2.91845e-06
2.91976e-06
2.91975e-06
2.91939e-06
2.91924e-06
2.91947e-06
2.91985e-06
2.91977e-06
2.91827e-06
2.91649e-06
2.91781e-06
2.9194e-06
2.91954e-06
2.91923e-06
2.9191e-06
2.9193e-06
2.91962e-06
2.91937e-06
2.91759e-06
2.91867e-06
2.91989e-06
2.91984e-06
2.91946e-06
2.9193e-06
2.91954e-06
2.91994e-06
2.91991e-06
2.91841e-06
2.91959e-06
2.92043e-06
2.92032e-06
2.91984e-06
2.91962e-06
2.91994e-06
2.92043e-06
2.92047e-06
2.91951e-06
2.92037e-06
2.92034e-06
2.91976e-06
2.91936e-06
2.91991e-06
2.92046e-06
2.92043e-06
2.91925e-06
2.91823e-06
2.91759e-06
2.91844e-06
2.91951e-06
2.87778e-06
2.87633e-06
2.88376e-06
2.88163e-06
2.87982e-06
2.88e-06
2.88018e-06
2.88614e-06
2.88538e-06
2.8838e-06
2.88136e-06
2.87762e-06
2.87709e-06
2.87711e-06
2.87768e-06
2.8836e-06
2.88286e-06
2.88165e-06
2.8776e-06
2.87755e-06
2.87744e-06
2.87747e-06
2.87761e-06
2.8777e-06
2.88305e-06
2.8867e-06
2.87784e-06
2.87979e-06
2.87707e-06
2.87744e-06
2.87755e-06
2.87757e-06
2.8775e-06
2.87718e-06
2.88132e-06
2.88297e-06
2.87648e-06
2.87995e-06
2.8771e-06
2.87746e-06
2.87757e-06
2.87759e-06
2.87753e-06
2.87721e-06
2.88136e-06
2.87833e-06
2.88016e-06
2.87767e-06
2.8776e-06
2.8775e-06
2.87752e-06
2.87767e-06
2.8778e-06
2.88201e-06
2.88177e-06
2.88607e-06
2.88357e-06
2.8777e-06
2.87717e-06
2.87719e-06
2.87775e-06
2.88422e-06
2.8839e-06
2.88759e-06
2.88534e-06
2.88287e-06
2.88304e-06
2.88131e-06
2.88133e-06
2.88196e-06
2.8837e-06
2.89022e-06
2.88683e-06
2.88304e-06
2.87831e-06
2.88163e-06
2.88747e-06
2.85734e-06
2.85797e-06
2.85689e-06
2.85502e-06
2.855e-06
2.85451e-06
2.85513e-06
2.85976e-06
2.85928e-06
2.85682e-06
2.85506e-06
2.85547e-06
2.85501e-06
2.85501e-06
2.85547e-06
2.8622e-06
2.85666e-06
2.85497e-06
2.8554e-06
2.85436e-06
2.85411e-06
2.85413e-06
2.85444e-06
2.85568e-06
2.86261e-06
2.86032e-06
2.85749e-06
2.85509e-06
2.855e-06
2.85411e-06
2.85383e-06
2.85385e-06
2.85419e-06
2.85514e-06
2.86082e-06
2.85868e-06
2.85766e-06
2.85456e-06
2.85501e-06
2.85414e-06
2.85386e-06
2.85388e-06
2.85422e-06
2.85516e-06
2.85978e-06
2.85367e-06
2.85512e-06
2.8555e-06
2.85446e-06
2.85421e-06
2.85422e-06
2.85453e-06
2.85572e-06
2.86191e-06
2.8594e-06
2.85978e-06
2.86222e-06
2.85571e-06
2.85519e-06
2.85516e-06
2.85567e-06
2.86553e-06
2.86014e-06
2.85909e-06
2.85931e-06
2.85667e-06
2.86264e-06
2.86089e-06
2.85983e-06
2.86195e-06
2.8603e-06
2.86322e-06
2.86032e-06
2.85867e-06
2.85385e-06
2.85938e-06
2.85917e-06
2.8244e-06
2.82477e-06
2.82431e-06
2.82224e-06
2.82208e-06
2.82161e-06
2.82243e-06
2.828e-06
2.82681e-06
2.82417e-06
2.82199e-06
2.81937e-06
2.81911e-06
2.81914e-06
2.81951e-06
2.83099e-06
2.82465e-06
2.8222e-06
2.8194e-06
2.81938e-06
2.81936e-06
2.81939e-06
2.81949e-06
2.81962e-06
2.83254e-06
2.82827e-06
2.82426e-06
2.82216e-06
2.81912e-06
2.81937e-06
2.81945e-06
2.81947e-06
2.81943e-06
2.81921e-06
2.83066e-06
2.82594e-06
2.8248e-06
2.82167e-06
2.81916e-06
2.81941e-06
2.81948e-06
2.81949e-06
2.81945e-06
2.8192e-06
2.82943e-06
2.82126e-06
2.82243e-06
2.81954e-06
2.81952e-06
2.81945e-06
2.81946e-06
2.81954e-06
2.81955e-06
2.83189e-06
2.82668e-06
2.82803e-06
2.83099e-06
2.81965e-06
2.81924e-06
2.81925e-06
2.81968e-06
2.83607e-06
2.82897e-06
2.82722e-06
2.8268e-06
2.82467e-06
2.83255e-06
2.83071e-06
2.82951e-06
2.83202e-06
2.8292e-06
2.83122e-06
2.82828e-06
2.82596e-06
2.82138e-06
2.82676e-06
2.82739e-06
2.79579e-06
2.79623e-06
2.79512e-06
2.79283e-06
2.79252e-06
2.79206e-06
2.79305e-06
2.79923e-06
2.79776e-06
2.79516e-06
2.79151e-06
2.78697e-06
2.78694e-06
2.78695e-06
2.78703e-06
2.80118e-06
2.7955e-06
2.79281e-06
2.78698e-06
2.78702e-06
2.78704e-06
2.78705e-06
2.78706e-06
2.78706e-06
2.80416e-06
2.79947e-06
2.79579e-06
2.79254e-06
2.78695e-06
2.78704e-06
2.78709e-06
2.78709e-06
2.78706e-06
2.78697e-06
2.8029e-06
2.79703e-06
2.79625e-06
2.7921e-06
2.78697e-06
2.78706e-06
2.7871e-06
2.7871e-06
2.78707e-06
2.78697e-06
2.80181e-06
2.79224e-06
2.79312e-06
2.78706e-06
2.78708e-06
2.78708e-06
2.78708e-06
2.78708e-06
2.78704e-06
2.80385e-06
2.79786e-06
2.79925e-06
2.8012e-06
2.78707e-06
2.78699e-06
2.78699e-06
2.78708e-06
2.80766e-06
2.80005e-06
2.79847e-06
2.79778e-06
2.79551e-06
2.80419e-06
2.80293e-06
2.80188e-06
2.80398e-06
2.80044e-06
2.80217e-06
2.79938e-06
2.79702e-06
2.79227e-06
2.79789e-06
2.79852e-06
2.76586e-06
2.76631e-06
2.76523e-06
2.76275e-06
2.76226e-06
2.76181e-06
2.76293e-06
2.76941e-06
2.76798e-06
2.76522e-06
2.76112e-06
2.75578e-06
2.7558e-06
2.75581e-06
2.75582e-06
2.77093e-06
2.76565e-06
2.76272e-06
2.75579e-06
2.75581e-06
2.75583e-06
2.75584e-06
2.75584e-06
2.75583e-06
2.77436e-06
2.76966e-06
2.76582e-06
2.76231e-06
2.75579e-06
2.75583e-06
2.75586e-06
2.75586e-06
2.75585e-06
2.75582e-06
2.77324e-06
2.76705e-06
2.76619e-06
2.76179e-06
2.75581e-06
2.75586e-06
2.75587e-06
2.75587e-06
2.75586e-06
2.75583e-06
2.77223e-06
2.76219e-06
2.76303e-06
2.75591e-06
2.75589e-06
2.75588e-06
2.75587e-06
2.75586e-06
2.75584e-06
2.77414e-06
2.76794e-06
2.76953e-06
2.77102e-06
2.7559e-06
2.75587e-06
2.75586e-06
2.75587e-06
2.7779e-06
2.77021e-06
2.76868e-06
2.76809e-06
2.76577e-06
2.77441e-06
2.77332e-06
2.77228e-06
2.77423e-06
2.77068e-06
2.77237e-06
2.76963e-06
2.76712e-06
2.76227e-06
2.76797e-06
2.7688e-06
2.73533e-06
2.7358e-06
2.7347e-06
2.7322e-06
2.73169e-06
2.73123e-06
2.73243e-06
2.73898e-06
2.73755e-06
2.73473e-06
2.73056e-06
2.72496e-06
2.72496e-06
2.72497e-06
2.72498e-06
2.74035e-06
2.73523e-06
2.73218e-06
2.72497e-06
2.72498e-06
2.72498e-06
2.72499e-06
2.72499e-06
2.72498e-06
2.74391e-06
2.7392e-06
2.73535e-06
2.73178e-06
2.725e-06
2.725e-06
2.725e-06
2.725e-06
2.72499e-06
2.72498e-06
2.74282e-06
2.73656e-06
2.7358e-06
2.73125e-06
2.72503e-06
2.72502e-06
2.72501e-06
2.72501e-06
2.725e-06
2.72499e-06
2.74181e-06
2.73167e-06
2.7325e-06
2.72503e-06
2.72502e-06
2.72502e-06
2.72501e-06
2.725e-06
2.72499e-06
2.74368e-06
2.73743e-06
2.73914e-06
2.74043e-06
2.72503e-06
2.72501e-06
2.72501e-06
2.725e-06
2.74748e-06
2.73977e-06
2.73819e-06
2.73767e-06
2.73539e-06
2.74399e-06
2.74289e-06
2.74194e-06
2.74383e-06
2.74025e-06
2.74188e-06
2.73925e-06
2.73663e-06
2.73183e-06
2.73751e-06
2.73838e-06
2.70471e-06
2.70519e-06
2.70408e-06
2.7016e-06
2.70106e-06
2.70059e-06
2.70179e-06
2.70834e-06
2.70692e-06
2.70421e-06
2.69989e-06
2.69424e-06
2.69425e-06
2.69424e-06
2.69424e-06
2.70967e-06
2.70466e-06
2.70155e-06
2.69423e-06
2.69424e-06
2.69424e-06
2.69425e-06
2.69425e-06
2.69425e-06
2.71327e-06
2.70856e-06
2.70466e-06
2.70109e-06
2.69423e-06
2.69424e-06
2.69425e-06
2.69425e-06
2.69425e-06
2.69425e-06
2.71221e-06
2.70593e-06
2.70525e-06
2.70061e-06
2.69424e-06
2.69424e-06
2.69425e-06
2.69425e-06
2.69425e-06
2.69424e-06
2.71118e-06
2.70101e-06
2.70182e-06
2.69425e-06
2.69425e-06
2.69425e-06
2.69425e-06
2.69425e-06
2.69425e-06
2.71305e-06
2.70679e-06
2.70841e-06
2.70973e-06
2.69425e-06
2.69425e-06
2.69425e-06
2.69426e-06
2.71685e-06
2.70916e-06
2.70757e-06
2.70697e-06
2.70465e-06
2.71331e-06
2.71226e-06
2.71129e-06
2.71318e-06
2.70958e-06
2.71128e-06
2.70856e-06
2.70597e-06
2.7011e-06
2.70687e-06
2.70773e-06
2.67404e-06
2.67451e-06
2.67344e-06
2.67095e-06
2.67039e-06
2.6699e-06
2.67111e-06
2.67767e-06
2.67626e-06
2.67356e-06
2.66923e-06
2.66354e-06
2.66353e-06
2.66353e-06
2.66352e-06
2.67901e-06
2.674e-06
2.67087e-06
2.66354e-06
2.66353e-06
2.66353e-06
2.66352e-06
2.66352e-06
2.66352e-06
2.68259e-06
2.67791e-06
2.67394e-06
2.67053e-06
2.66351e-06
2.66351e-06
2.66352e-06
2.66352e-06
2.66351e-06
2.66351e-06
2.68153e-06
2.67526e-06
2.67443e-06
2.66989e-06
2.66348e-06
2.6635e-06
2.66351e-06
2.66351e-06
2.66351e-06
2.66351e-06
2.6805e-06
2.67033e-06
2.67098e-06
2.66348e-06
2.66349e-06
2.6635e-06
2.6635e-06
2.66351e-06
2.66352e-06
2.68238e-06
2.6761e-06
2.67761e-06
2.67894e-06
2.66349e-06
2.66349e-06
2.6635e-06
2.66351e-06
2.68617e-06
2.67849e-06
2.67688e-06
2.6762e-06
2.67388e-06
2.68256e-06
2.6815e-06
2.68056e-06
2.68245e-06
2.67891e-06
2.68061e-06
2.67782e-06
2.67521e-06
2.67039e-06
2.67614e-06
2.67703e-06
2.64336e-06
2.64381e-06
2.64275e-06
2.64026e-06
2.6397e-06
2.6392e-06
2.64042e-06
2.64698e-06
2.64556e-06
2.64289e-06
2.63855e-06
2.63283e-06
2.63282e-06
2.63282e-06
2.63282e-06
2.64831e-06
2.6433e-06
2.64029e-06
2.63282e-06
2.63283e-06
2.63282e-06
2.63281e-06
2.63281e-06
2.6328e-06
2.6519e-06
2.6472e-06
2.64356e-06
2.63975e-06
2.63282e-06
2.63281e-06
2.63281e-06
2.6328e-06
2.6328e-06
2.6328e-06
2.65082e-06
2.64454e-06
2.64367e-06
2.63919e-06
2.63279e-06
2.63279e-06
2.63279e-06
2.63279e-06
2.63279e-06
2.63279e-06
2.6498e-06
2.63961e-06
2.64022e-06
2.63278e-06
2.63277e-06
2.63278e-06
2.63279e-06
2.63279e-06
2.63279e-06
2.65165e-06
2.64538e-06
2.64689e-06
2.64822e-06
2.63276e-06
2.63277e-06
2.63278e-06
2.63278e-06
2.65546e-06
2.64778e-06
2.64617e-06
2.64547e-06
2.64316e-06
2.65188e-06
2.65085e-06
2.64983e-06
2.65174e-06
2.64821e-06
2.6499e-06
2.64711e-06
2.64452e-06
2.63963e-06
2.64542e-06
2.64631e-06
2.61263e-06
2.61311e-06
2.61205e-06
2.60951e-06
2.60896e-06
2.60847e-06
2.60971e-06
2.61627e-06
2.61485e-06
2.61214e-06
2.60783e-06
2.6021e-06
2.6021e-06
2.60209e-06
2.60209e-06
2.6176e-06
2.61258e-06
2.60948e-06
2.60212e-06
2.6021e-06
2.60209e-06
2.60209e-06
2.60209e-06
2.60209e-06
2.62119e-06
2.61649e-06
2.61264e-06
2.60907e-06
2.60209e-06
2.60209e-06
2.60209e-06
2.60209e-06
2.60209e-06
2.60209e-06
2.62011e-06
2.61382e-06
2.61303e-06
2.60846e-06
2.60207e-06
2.60208e-06
2.60208e-06
2.60208e-06
2.60208e-06
2.60208e-06
2.61909e-06
2.6089e-06
2.60955e-06
2.60206e-06
2.60206e-06
2.60207e-06
2.60208e-06
2.60208e-06
2.60209e-06
2.62095e-06
2.61468e-06
2.61623e-06
2.61751e-06
2.60206e-06
2.60207e-06
2.60207e-06
2.60208e-06
2.62476e-06
2.61707e-06
2.61546e-06
2.61477e-06
2.61253e-06
2.62118e-06
2.6201e-06
2.61911e-06
2.62105e-06
2.61751e-06
2.6192e-06
2.61639e-06
2.6138e-06
2.60892e-06
2.61474e-06
2.61562e-06
2.58189e-06
2.58236e-06
2.5813e-06
2.57877e-06
2.57822e-06
2.57775e-06
2.57896e-06
2.58553e-06
2.58412e-06
2.58136e-06
2.57707e-06
2.57136e-06
2.57136e-06
2.57136e-06
2.57136e-06
2.58687e-06
2.58186e-06
2.57877e-06
2.57135e-06
2.57136e-06
2.57136e-06
2.57136e-06
2.57136e-06
2.57137e-06
2.59047e-06
2.58579e-06
2.5819e-06
2.57824e-06
2.57136e-06
2.57136e-06
2.57136e-06
2.57136e-06
2.57136e-06
2.57136e-06
2.5894e-06
2.58313e-06
2.58232e-06
2.57774e-06
2.57136e-06
2.57136e-06
2.57136e-06
2.57136e-06
2.57136e-06
2.57136e-06
2.58838e-06
2.57819e-06
2.57894e-06
2.57137e-06
2.57137e-06
2.57136e-06
2.57136e-06
2.57136e-06
2.57136e-06
2.59022e-06
2.58395e-06
2.5856e-06
2.58685e-06
2.57137e-06
2.57136e-06
2.57136e-06
2.57137e-06
2.59403e-06
2.58635e-06
2.58474e-06
2.58411e-06
2.58184e-06
2.5905e-06
2.58942e-06
2.58842e-06
2.59036e-06
2.5868e-06
2.58849e-06
2.5857e-06
2.58311e-06
2.57821e-06
2.58404e-06
2.58493e-06
2.55115e-06
2.55163e-06
2.55054e-06
2.54803e-06
2.54748e-06
2.54701e-06
2.54823e-06
2.55481e-06
2.5534e-06
2.55059e-06
2.54632e-06
2.54062e-06
2.54062e-06
2.54063e-06
2.54064e-06
2.55615e-06
2.55114e-06
2.54803e-06
2.54063e-06
2.54062e-06
2.54063e-06
2.54064e-06
2.54064e-06
2.54065e-06
2.55975e-06
2.55506e-06
2.55124e-06
2.54755e-06
2.54063e-06
2.54063e-06
2.54064e-06
2.54064e-06
2.54065e-06
2.54065e-06
2.55869e-06
2.55241e-06
2.5517e-06
2.54701e-06
2.54066e-06
2.54065e-06
2.54065e-06
2.54065e-06
2.54065e-06
2.54065e-06
2.55766e-06
2.54747e-06
2.54833e-06
2.54068e-06
2.54068e-06
2.54067e-06
2.54066e-06
2.54066e-06
2.54065e-06
2.55951e-06
2.55324e-06
2.55495e-06
2.55622e-06
2.54069e-06
2.54068e-06
2.54067e-06
2.54066e-06
2.56335e-06
2.55564e-06
2.55403e-06
2.55345e-06
2.55119e-06
2.55982e-06
2.55873e-06
2.55776e-06
2.55964e-06
2.55609e-06
2.55778e-06
2.55502e-06
2.55243e-06
2.54758e-06
2.55331e-06
2.55421e-06
2.52042e-06
2.5209e-06
2.51978e-06
2.51731e-06
2.51676e-06
2.51629e-06
2.51751e-06
2.52408e-06
2.52267e-06
2.51986e-06
2.51558e-06
2.50989e-06
2.5099e-06
2.50991e-06
2.50991e-06
2.52542e-06
2.52041e-06
2.51728e-06
2.5099e-06
2.5099e-06
2.50991e-06
2.50992e-06
2.50992e-06
2.50992e-06
2.52902e-06
2.52432e-06
2.52035e-06
2.51683e-06
2.50992e-06
2.50992e-06
2.50992e-06
2.50993e-06
2.50993e-06
2.50993e-06
2.52795e-06
2.52168e-06
2.5209e-06
2.51629e-06
2.50994e-06
2.50994e-06
2.50994e-06
2.50994e-06
2.50994e-06
2.50994e-06
2.52695e-06
2.51676e-06
2.51755e-06
2.50995e-06
2.50996e-06
2.50995e-06
2.50995e-06
2.50994e-06
2.50994e-06
2.52881e-06
2.52254e-06
2.52425e-06
2.52548e-06
2.50997e-06
2.50996e-06
2.50995e-06
2.50995e-06
2.53263e-06
2.52494e-06
2.52332e-06
2.52276e-06
2.52054e-06
2.52915e-06
2.52807e-06
2.52705e-06
2.52896e-06
2.52539e-06
2.52707e-06
2.52435e-06
2.52174e-06
2.51683e-06
2.52263e-06
2.52351e-06
2.48971e-06
2.49018e-06
2.48908e-06
2.4866e-06
2.48605e-06
2.48557e-06
2.4868e-06
2.49337e-06
2.49195e-06
2.48919e-06
2.48487e-06
2.47919e-06
2.4792e-06
2.4792e-06
2.4792e-06
2.4947e-06
2.4897e-06
2.48656e-06
2.4792e-06
2.4792e-06
2.4792e-06
2.47921e-06
2.47921e-06
2.47921e-06
2.49831e-06
2.49361e-06
2.48967e-06
2.48612e-06
2.47921e-06
2.47921e-06
2.47921e-06
2.47921e-06
2.47921e-06
2.47922e-06
2.49724e-06
2.49097e-06
2.4902e-06
2.4856e-06
2.47922e-06
2.47922e-06
2.47922e-06
2.47922e-06
2.47922e-06
2.47922e-06
2.49623e-06
2.48604e-06
2.48679e-06
2.47923e-06
2.47923e-06
2.47923e-06
2.47922e-06
2.47922e-06
2.47923e-06
2.49809e-06
2.49183e-06
2.49349e-06
2.4948e-06
2.47925e-06
2.47923e-06
2.47922e-06
2.47922e-06
2.5019e-06
2.49422e-06
2.49261e-06
2.49204e-06
2.48972e-06
2.49839e-06
2.49733e-06
2.49633e-06
2.49822e-06
2.49466e-06
2.49635e-06
2.49363e-06
2.49102e-06
2.48612e-06
2.4919e-06
2.49278e-06
2.45901e-06
2.4595e-06
2.4584e-06
2.45589e-06
2.45534e-06
2.45487e-06
2.4561e-06
2.46266e-06
2.46125e-06
2.45853e-06
2.45418e-06
2.44849e-06
2.44848e-06
2.44849e-06
2.4485e-06
2.464e-06
2.45899e-06
2.45588e-06
2.44849e-06
2.44849e-06
2.44849e-06
2.44849e-06
2.4485e-06
2.4485e-06
2.4676e-06
2.4629e-06
2.45895e-06
2.4554e-06
2.44849e-06
2.44849e-06
2.44849e-06
2.4485e-06
2.4485e-06
2.4485e-06
2.46653e-06
2.46025e-06
2.4594e-06
2.4549e-06
2.44848e-06
2.44849e-06
2.44849e-06
2.4485e-06
2.4485e-06
2.44851e-06
2.46552e-06
2.45533e-06
2.45607e-06
2.44848e-06
2.44849e-06
2.4485e-06
2.4485e-06
2.44851e-06
2.44851e-06
2.46739e-06
2.46111e-06
2.46268e-06
2.46396e-06
2.44852e-06
2.4485e-06
2.4485e-06
2.44849e-06
2.47122e-06
2.46351e-06
2.4619e-06
2.46128e-06
2.45898e-06
2.46764e-06
2.46656e-06
2.46556e-06
2.4675e-06
2.46398e-06
2.46564e-06
2.4629e-06
2.46028e-06
2.45537e-06
2.46117e-06
2.46207e-06
2.4283e-06
2.42877e-06
2.42769e-06
2.42519e-06
2.42463e-06
2.42416e-06
2.42536e-06
2.43194e-06
2.43053e-06
2.42781e-06
2.42346e-06
2.41776e-06
2.41777e-06
2.41777e-06
2.41778e-06
2.43328e-06
2.42827e-06
2.42514e-06
2.41777e-06
2.41776e-06
2.41777e-06
2.41777e-06
2.41778e-06
2.41778e-06
2.43688e-06
2.43218e-06
2.42827e-06
2.42465e-06
2.41776e-06
2.41776e-06
2.41777e-06
2.41778e-06
2.41778e-06
2.41779e-06
2.43582e-06
2.42954e-06
2.42876e-06
2.42419e-06
2.41775e-06
2.41776e-06
2.41777e-06
2.41778e-06
2.41779e-06
2.4178e-06
2.43481e-06
2.42462e-06
2.42532e-06
2.41775e-06
2.41776e-06
2.41777e-06
2.41778e-06
2.4178e-06
2.4178e-06
2.43669e-06
2.4304e-06
2.43197e-06
2.43325e-06
2.41775e-06
2.41777e-06
2.41779e-06
2.41781e-06
2.44049e-06
2.43279e-06
2.43119e-06
2.43053e-06
2.42821e-06
2.43686e-06
2.43579e-06
2.43484e-06
2.43678e-06
2.43327e-06
2.43491e-06
2.43209e-06
2.42951e-06
2.4247e-06
2.4305e-06
2.43139e-06
2.39758e-06
2.39804e-06
2.39698e-06
2.39448e-06
2.39392e-06
2.39344e-06
2.39463e-06
2.40122e-06
2.39981e-06
2.3971e-06
2.39275e-06
2.38705e-06
2.38705e-06
2.38705e-06
2.38705e-06
2.40256e-06
2.39755e-06
2.39443e-06
2.38704e-06
2.38705e-06
2.38705e-06
2.38706e-06
2.38706e-06
2.38705e-06
2.40617e-06
2.40147e-06
2.3976e-06
2.3939e-06
2.38703e-06
2.38704e-06
2.38705e-06
2.38706e-06
2.38706e-06
2.38707e-06
2.4051e-06
2.39882e-06
2.39805e-06
2.39342e-06
2.38703e-06
2.38704e-06
2.38705e-06
2.38706e-06
2.38707e-06
2.38708e-06
2.40411e-06
2.39391e-06
2.39461e-06
2.38702e-06
2.38704e-06
2.38705e-06
2.38707e-06
2.38708e-06
2.38708e-06
2.40598e-06
2.39969e-06
2.40121e-06
2.40252e-06
2.38704e-06
2.38705e-06
2.38707e-06
2.38707e-06
2.4098e-06
2.40211e-06
2.40049e-06
2.39978e-06
2.39746e-06
2.40614e-06
2.40503e-06
2.40414e-06
2.40604e-06
2.40258e-06
2.40421e-06
2.40143e-06
2.3988e-06
2.39385e-06
2.39975e-06
2.40067e-06
2.36686e-06
2.36735e-06
2.36626e-06
2.36375e-06
2.36318e-06
2.36272e-06
2.36395e-06
2.37051e-06
2.36909e-06
2.36639e-06
2.36203e-06
2.35633e-06
2.35633e-06
2.35633e-06
2.35634e-06
2.37184e-06
2.36683e-06
2.36372e-06
2.35633e-06
2.35633e-06
2.35633e-06
2.35633e-06
2.35634e-06
2.35634e-06
2.37543e-06
2.37074e-06
2.36683e-06
2.36317e-06
2.35632e-06
2.35633e-06
2.35633e-06
2.35634e-06
2.35634e-06
2.35634e-06
2.37436e-06
2.36809e-06
2.36724e-06
2.36273e-06
2.35632e-06
2.35633e-06
2.35633e-06
2.35634e-06
2.35634e-06
2.35635e-06
2.37336e-06
2.36318e-06
2.36385e-06
2.35631e-06
2.35632e-06
2.35633e-06
2.35634e-06
2.35635e-06
2.35636e-06
2.37524e-06
2.36896e-06
2.37047e-06
2.3718e-06
2.35632e-06
2.35633e-06
2.35635e-06
2.35636e-06
2.37907e-06
2.37134e-06
2.36975e-06
2.36906e-06
2.36675e-06
2.37544e-06
2.37434e-06
2.37339e-06
2.37533e-06
2.37185e-06
2.37346e-06
2.37061e-06
2.36811e-06
2.36322e-06
2.36902e-06
2.36991e-06
2.33614e-06
2.33661e-06
2.33555e-06
2.33304e-06
2.33248e-06
2.33198e-06
2.33319e-06
2.33977e-06
2.33836e-06
2.33568e-06
2.33132e-06
2.32562e-06
2.32561e-06
2.32561e-06
2.32561e-06
2.34111e-06
2.3361e-06
2.33301e-06
2.32562e-06
2.32561e-06
2.32561e-06
2.32561e-06
2.32561e-06
2.3256e-06
2.3447e-06
2.34001e-06
2.33617e-06
2.33252e-06
2.32562e-06
2.32561e-06
2.32561e-06
2.32561e-06
2.3256e-06
2.3256e-06
2.34363e-06
2.33735e-06
2.33656e-06
2.332e-06
2.32562e-06
2.32562e-06
2.32561e-06
2.3256e-06
2.3256e-06
2.32559e-06
2.34261e-06
2.33243e-06
2.33319e-06
2.32563e-06
2.32563e-06
2.32561e-06
2.32559e-06
2.32558e-06
2.32558e-06
2.34448e-06
2.3382e-06
2.33979e-06
2.34112e-06
2.32563e-06
2.32561e-06
2.32559e-06
2.32557e-06
2.34826e-06
2.34058e-06
2.33898e-06
2.33838e-06
2.33608e-06
2.34475e-06
2.34396e-06
2.34267e-06
2.34459e-06
2.34101e-06
2.34268e-06
2.34002e-06
2.33741e-06
2.33252e-06
2.33825e-06
2.33915e-06
2.30543e-06
2.3059e-06
2.30482e-06
2.3023e-06
2.3017e-06
2.30133e-06
2.30247e-06
2.30905e-06
2.30764e-06
2.30495e-06
2.3006e-06
2.29489e-06
2.29489e-06
2.29489e-06
2.29489e-06
2.31039e-06
2.30538e-06
2.30229e-06
2.29489e-06
2.29489e-06
2.29489e-06
2.29489e-06
2.29489e-06
2.29489e-06
2.31398e-06
2.3093e-06
2.30547e-06
2.30181e-06
2.29489e-06
2.29489e-06
2.29489e-06
2.29489e-06
2.29489e-06
2.29488e-06
2.31292e-06
2.30664e-06
2.30588e-06
2.30141e-06
2.2949e-06
2.2949e-06
2.29489e-06
2.29489e-06
2.29488e-06
2.29488e-06
2.31189e-06
2.30171e-06
2.30246e-06
2.2949e-06
2.2949e-06
2.2949e-06
2.29489e-06
2.29488e-06
2.29488e-06
2.31374e-06
2.30746e-06
2.30909e-06
2.3104e-06
2.29491e-06
2.2949e-06
2.29488e-06
2.29487e-06
2.31753e-06
2.30984e-06
2.30824e-06
2.30767e-06
2.30537e-06
2.31402e-06
2.31318e-06
2.31199e-06
2.31386e-06
2.31027e-06
2.31194e-06
2.30933e-06
2.30661e-06
2.3019e-06
2.30747e-06
2.3083e-06
2.27469e-06
2.27513e-06
2.2741e-06
2.27159e-06
2.271e-06
2.2706e-06
2.27175e-06
2.27835e-06
2.27693e-06
2.27423e-06
2.26987e-06
2.26417e-06
2.26418e-06
2.26417e-06
2.26417e-06
2.27968e-06
2.27467e-06
2.27157e-06
2.26417e-06
2.26417e-06
2.26417e-06
2.26417e-06
2.26418e-06
2.26418e-06
2.28327e-06
2.27858e-06
2.27472e-06
2.27105e-06
2.26417e-06
2.26417e-06
2.26417e-06
2.26418e-06
2.26418e-06
2.26418e-06
2.28222e-06
2.27594e-06
2.27518e-06
2.27056e-06
2.26417e-06
2.26417e-06
2.26417e-06
2.26418e-06
2.26419e-06
2.26419e-06
2.28119e-06
2.27101e-06
2.27175e-06
2.26416e-06
2.26416e-06
2.26416e-06
2.26418e-06
2.2642e-06
2.2642e-06
2.28306e-06
2.27678e-06
2.27838e-06
2.27966e-06
2.26415e-06
2.26416e-06
2.26419e-06
2.26421e-06
2.28688e-06
2.27918e-06
2.27755e-06
2.27693e-06
2.27461e-06
2.28325e-06
2.28213e-06
2.28108e-06
2.2832e-06
2.27966e-06
2.28128e-06
2.27857e-06
2.27593e-06
2.27094e-06
2.27683e-06
2.27767e-06
2.24398e-06
2.24444e-06
2.24337e-06
2.24086e-06
2.24025e-06
2.2399e-06
2.24102e-06
2.24762e-06
2.24621e-06
2.24351e-06
2.23915e-06
2.23346e-06
2.23346e-06
2.23346e-06
2.23346e-06
2.24896e-06
2.24395e-06
2.24085e-06
2.23346e-06
2.23346e-06
2.23346e-06
2.23346e-06
2.23346e-06
2.23347e-06
2.25254e-06
2.24786e-06
2.24398e-06
2.24032e-06
2.23345e-06
2.23345e-06
2.23346e-06
2.23346e-06
2.23346e-06
2.23346e-06
2.25149e-06
2.24522e-06
2.24444e-06
2.23986e-06
2.23345e-06
2.23345e-06
2.23346e-06
2.23346e-06
2.23346e-06
2.23346e-06
2.25048e-06
2.24029e-06
2.24103e-06
2.23344e-06
2.23345e-06
2.23346e-06
2.23347e-06
2.23347e-06
2.23347e-06
2.25235e-06
2.24607e-06
2.24763e-06
2.24894e-06
2.23344e-06
2.23345e-06
2.23347e-06
2.23349e-06
2.25615e-06
2.24847e-06
2.24684e-06
2.2462e-06
2.2439e-06
2.25256e-06
2.25148e-06
2.25045e-06
2.25248e-06
2.24895e-06
2.25057e-06
2.24774e-06
2.24522e-06
2.24035e-06
2.24613e-06
2.24701e-06
2.21331e-06
2.21371e-06
2.21267e-06
2.21018e-06
2.20963e-06
2.20914e-06
2.21031e-06
2.21688e-06
2.21547e-06
2.21281e-06
2.20845e-06
2.20274e-06
2.20273e-06
2.20273e-06
2.20273e-06
2.2182e-06
2.21321e-06
2.21015e-06
2.20274e-06
2.20274e-06
2.20274e-06
2.20273e-06
2.20273e-06
2.20272e-06
2.22182e-06
2.21713e-06
2.21328e-06
2.20963e-06
2.20275e-06
2.20274e-06
2.20274e-06
2.20273e-06
2.20272e-06
2.20272e-06
2.22075e-06
2.21447e-06
2.2137e-06
2.20913e-06
2.20275e-06
2.20275e-06
2.20273e-06
2.20272e-06
2.20272e-06
2.20271e-06
2.21972e-06
2.20954e-06
2.21033e-06
2.20277e-06
2.20275e-06
2.20273e-06
2.20272e-06
2.20271e-06
2.2027e-06
2.22158e-06
2.21531e-06
2.21694e-06
2.21823e-06
2.20274e-06
2.20273e-06
2.20272e-06
2.20271e-06
2.22537e-06
2.21769e-06
2.21608e-06
2.21552e-06
2.21321e-06
2.22187e-06
2.22092e-06
2.21984e-06
2.22173e-06
2.21812e-06
2.21979e-06
2.21719e-06
2.2145e-06
2.20966e-06
2.21539e-06
2.2162e-06
2.18258e-06
2.18301e-06
2.18194e-06
2.17944e-06
2.17891e-06
2.17845e-06
2.17962e-06
2.18619e-06
2.18476e-06
2.18207e-06
2.17772e-06
2.172e-06
2.17201e-06
2.17201e-06
2.17201e-06
2.18749e-06
2.18249e-06
2.17941e-06
2.17201e-06
2.17201e-06
2.17201e-06
2.17201e-06
2.172e-06
2.172e-06
2.1911e-06
2.1864e-06
2.18257e-06
2.17891e-06
2.17202e-06
2.17202e-06
2.17201e-06
2.17201e-06
2.172e-06
2.17199e-06
2.19003e-06
2.18374e-06
2.18303e-06
2.17851e-06
2.17203e-06
2.17203e-06
2.17202e-06
2.17201e-06
2.17199e-06
2.17198e-06
2.18899e-06
2.17881e-06
2.17963e-06
2.17205e-06
2.17204e-06
2.17203e-06
2.17201e-06
2.17199e-06
2.17199e-06
2.19084e-06
2.18457e-06
2.18627e-06
2.18756e-06
2.17204e-06
2.17203e-06
2.17201e-06
2.172e-06
2.19463e-06
2.18693e-06
2.18535e-06
2.18485e-06
2.18252e-06
2.19116e-06
2.1901e-06
2.18913e-06
2.19097e-06
2.18736e-06
2.18903e-06
2.18649e-06
2.18372e-06
2.17898e-06
2.18458e-06
2.1854e-06
2.15183e-06
2.15238e-06
2.15122e-06
2.14872e-06
2.14819e-06
2.14774e-06
2.14886e-06
2.15547e-06
2.15405e-06
2.15135e-06
2.147e-06
2.1413e-06
2.14129e-06
2.14129e-06
2.14128e-06
2.15679e-06
2.15178e-06
2.14869e-06
2.14128e-06
2.1413e-06
2.14129e-06
2.14128e-06
2.14128e-06
2.14128e-06
2.16038e-06
2.15568e-06
2.15186e-06
2.14816e-06
2.14129e-06
2.14129e-06
2.14129e-06
2.14128e-06
2.14128e-06
2.14127e-06
2.1593e-06
2.15302e-06
2.1523e-06
2.14769e-06
2.1413e-06
2.1413e-06
2.14129e-06
2.14128e-06
2.14127e-06
2.14126e-06
2.15828e-06
2.14809e-06
2.14891e-06
2.14131e-06
2.1413e-06
2.14129e-06
2.14128e-06
2.14127e-06
2.14126e-06
2.16015e-06
2.15386e-06
2.15552e-06
2.15681e-06
2.1413e-06
2.1413e-06
2.14128e-06
2.14127e-06
2.16393e-06
2.15624e-06
2.15464e-06
2.1541e-06
2.15176e-06
2.1604e-06
2.15953e-06
2.15839e-06
2.16024e-06
2.15667e-06
2.15834e-06
2.15564e-06
2.15308e-06
2.14827e-06
2.15387e-06
2.15477e-06
2.12115e-06
2.12159e-06
2.12051e-06
2.118e-06
2.11745e-06
2.117e-06
2.11817e-06
2.12474e-06
2.12333e-06
2.12064e-06
2.11629e-06
2.11058e-06
2.11058e-06
2.11058e-06
2.11058e-06
2.12608e-06
2.12106e-06
2.11797e-06
2.11058e-06
2.11058e-06
2.11057e-06
2.11057e-06
2.11057e-06
2.11057e-06
2.12967e-06
2.12497e-06
2.12112e-06
2.11744e-06
2.11057e-06
2.11057e-06
2.11057e-06
2.11057e-06
2.11057e-06
2.11056e-06
2.12859e-06
2.12232e-06
2.12158e-06
2.11699e-06
2.11057e-06
2.11057e-06
2.11057e-06
2.11057e-06
2.11056e-06
2.11056e-06
2.12758e-06
2.11739e-06
2.11813e-06
2.11057e-06
2.11057e-06
2.11056e-06
2.11056e-06
2.11056e-06
2.11055e-06
2.12942e-06
2.12314e-06
2.12476e-06
2.12601e-06
2.11056e-06
2.11056e-06
2.11057e-06
2.11057e-06
2.13323e-06
2.12551e-06
2.12391e-06
2.12335e-06
2.12101e-06
2.12967e-06
2.12862e-06
2.12763e-06
2.12952e-06
2.12595e-06
2.12764e-06
2.12492e-06
2.12231e-06
2.11744e-06
2.12321e-06
2.12408e-06
2.09042e-06
2.09087e-06
2.08983e-06
2.08733e-06
2.08676e-06
2.08626e-06
2.08747e-06
2.09403e-06
2.09262e-06
2.08994e-06
2.08559e-06
2.07989e-06
2.07988e-06
2.07987e-06
2.07987e-06
2.09537e-06
2.09035e-06
2.08726e-06
2.07988e-06
2.07988e-06
2.07987e-06
2.07986e-06
2.07986e-06
2.07986e-06
2.09896e-06
2.09426e-06
2.09027e-06
2.08688e-06
2.07986e-06
2.07986e-06
2.07986e-06
2.07986e-06
2.07986e-06
2.07985e-06
2.09789e-06
2.09161e-06
2.09076e-06
2.08623e-06
2.07984e-06
2.07984e-06
2.07985e-06
2.07985e-06
2.07985e-06
2.07985e-06
2.09685e-06
2.08667e-06
2.08734e-06
2.07983e-06
2.07983e-06
2.07984e-06
2.07984e-06
2.07984e-06
2.07984e-06
2.0987e-06
2.09243e-06
2.09399e-06
2.09528e-06
2.07982e-06
2.07984e-06
2.07984e-06
2.07984e-06
2.10252e-06
2.09483e-06
2.09321e-06
2.09258e-06
2.09023e-06
2.09891e-06
2.09786e-06
2.09687e-06
2.09881e-06
2.09527e-06
2.09696e-06
2.09415e-06
2.09157e-06
2.0867e-06
2.09251e-06
2.09339e-06
2.05971e-06
2.06017e-06
2.05911e-06
2.05662e-06
2.05604e-06
2.05555e-06
2.05676e-06
2.06332e-06
2.0619e-06
2.05925e-06
2.05489e-06
2.04917e-06
2.04917e-06
2.04916e-06
2.04915e-06
2.06466e-06
2.05964e-06
2.05664e-06
2.04915e-06
2.04916e-06
2.04916e-06
2.04915e-06
2.04915e-06
2.04914e-06
2.06824e-06
2.06354e-06
2.05991e-06
2.0561e-06
2.04915e-06
2.04915e-06
2.04915e-06
2.04914e-06
2.04914e-06
2.04914e-06
2.06716e-06
2.06089e-06
2.06009e-06
2.05553e-06
2.04913e-06
2.04913e-06
2.04913e-06
2.04914e-06
2.04914e-06
2.04914e-06
2.06616e-06
2.05597e-06
2.05657e-06
2.04913e-06
2.04912e-06
2.04912e-06
2.04913e-06
2.04913e-06
2.04914e-06
2.06799e-06
2.06173e-06
2.06323e-06
2.06454e-06
2.0491e-06
2.04911e-06
2.04912e-06
2.04913e-06
2.0718e-06
2.06412e-06
2.06251e-06
2.06183e-06
2.05944e-06
2.06818e-06
2.06715e-06
2.06621e-06
2.06808e-06
2.06455e-06
2.06624e-06
2.06344e-06
2.06083e-06
2.05601e-06
2.06176e-06
2.06266e-06
2.02898e-06
2.02944e-06
2.02839e-06
2.02587e-06
2.02531e-06
2.02483e-06
2.02604e-06
2.03261e-06
2.03119e-06
2.02849e-06
2.02417e-06
2.01845e-06
2.01844e-06
2.01844e-06
2.01843e-06
2.03394e-06
2.02892e-06
2.02581e-06
2.01844e-06
2.01844e-06
2.01844e-06
2.01843e-06
2.01843e-06
2.01843e-06
2.03753e-06
2.03283e-06
2.02907e-06
2.02541e-06
2.01843e-06
2.01843e-06
2.01843e-06
2.01843e-06
2.01842e-06
2.01842e-06
2.03644e-06
2.03017e-06
2.02939e-06
2.02481e-06
2.01841e-06
2.01841e-06
2.01842e-06
2.01842e-06
2.01842e-06
2.01842e-06
2.03543e-06
2.02524e-06
2.0259e-06
2.0184e-06
2.0184e-06
2.01841e-06
2.01841e-06
2.01841e-06
2.01841e-06
2.03728e-06
2.03102e-06
2.03254e-06
2.03385e-06
2.01839e-06
2.0184e-06
2.0184e-06
2.01841e-06
2.04107e-06
2.0334e-06
2.0318e-06
2.0311e-06
2.02887e-06
2.03753e-06
2.03645e-06
2.03545e-06
2.03738e-06
2.03383e-06
2.03553e-06
2.03274e-06
2.03015e-06
2.02525e-06
2.03105e-06
2.03194e-06
1.99825e-06
1.99872e-06
1.99766e-06
1.99513e-06
1.99458e-06
1.9941e-06
1.99532e-06
2.00188e-06
2.00047e-06
1.99771e-06
1.99343e-06
1.98772e-06
1.98771e-06
1.98771e-06
1.98771e-06
2.00322e-06
1.99821e-06
1.99512e-06
1.98771e-06
1.98771e-06
1.98771e-06
1.98771e-06
1.98771e-06
1.98771e-06
2.00682e-06
2.00213e-06
1.99827e-06
1.99458e-06
1.9877e-06
1.98771e-06
1.98771e-06
1.98771e-06
1.9877e-06
1.9877e-06
2.00574e-06
1.99947e-06
1.99867e-06
1.99411e-06
1.9877e-06
1.9877e-06
1.9877e-06
1.9877e-06
1.9877e-06
1.9877e-06
2.00472e-06
1.99453e-06
1.99526e-06
1.98771e-06
1.9877e-06
1.9877e-06
1.9877e-06
1.9877e-06
1.9877e-06
2.00656e-06
2.00029e-06
2.00189e-06
2.00317e-06
1.98769e-06
1.9877e-06
1.9877e-06
1.9877e-06
2.01036e-06
2.00268e-06
2.00107e-06
2.00043e-06
1.99816e-06
2.00682e-06
2.00574e-06
2.00477e-06
2.00668e-06
2.00312e-06
2.00481e-06
2.00202e-06
1.99944e-06
1.99457e-06
2.00035e-06
2.00124e-06
1.96752e-06
1.96799e-06
1.96693e-06
1.9644e-06
1.96385e-06
1.96338e-06
1.96459e-06
1.97116e-06
1.96975e-06
1.96698e-06
1.9627e-06
1.95699e-06
1.95699e-06
1.95699e-06
1.95699e-06
1.9725e-06
1.96749e-06
1.96438e-06
1.95699e-06
1.95699e-06
1.95699e-06
1.95699e-06
1.95699e-06
1.95699e-06
1.97609e-06
1.9714e-06
1.96756e-06
1.96384e-06
1.95698e-06
1.95699e-06
1.95699e-06
1.95699e-06
1.95699e-06
1.95699e-06
1.97501e-06
1.96873e-06
1.96795e-06
1.9634e-06
1.95698e-06
1.95698e-06
1.95698e-06
1.95699e-06
1.95699e-06
1.95699e-06
1.97399e-06
1.96381e-06
1.96455e-06
1.95699e-06
1.95698e-06
1.95698e-06
1.95698e-06
1.95698e-06
1.95699e-06
1.97585e-06
1.96959e-06
1.97119e-06
1.97245e-06
1.95698e-06
1.95698e-06
1.95698e-06
1.95698e-06
1.97965e-06
1.97197e-06
1.97037e-06
1.96973e-06
1.96747e-06
1.97609e-06
1.97504e-06