/*--------------------------------*- C++ -*----------------------------------*\
| =========                 |                                                 |
| \\      /  F ield         | OpenFOAM: The Open Source CFD Toolbox           |
|  \\    /   O peration     | Version:  v2012                                 |
|   \\  /    A nd           | Website:  www.openfoam.com                      |
|    \\/     M anipulation  |                                                 |
\*---------------------------------------------------------------------------*/
FoamFile
{
    version     2.0;
    format      ascii;
    class       volScalarField;
    location    "0.065";
    object      p;
}
// * * * * * * * * * * * * * * * * * * * * * * * * * * * * * * * * * * * * * //

dimensions      [0 2 -2 0 0 0 0];


internalField   nonuniform List<scalar> 
244288
(
2.44201e-06
2.44419e-06
2.44409e-06
2.44343e-06
2.44294e-06
2.44355e-06
2.44416e-06
2.44419e-06
2.44441e-06
2.44442e-06
2.44406e-06
2.44382e-06
2.44412e-06
2.44446e-06
2.44439e-06
2.44409e-06
2.44442e-06
2.44424e-06
2.44385e-06
2.44368e-06
2.4439e-06
2.4443e-06
2.44442e-06
2.44405e-06
2.44344e-06
2.44406e-06
2.44385e-06
2.44346e-06
2.4433e-06
2.4435e-06
2.44391e-06
2.44405e-06
2.4433e-06
2.442e-06
2.44294e-06
2.44382e-06
2.44368e-06
2.44329e-06
2.44314e-06
2.44334e-06
2.44373e-06
2.44379e-06
2.44277e-06
2.44354e-06
2.44412e-06
2.4439e-06
2.4435e-06
2.44334e-06
2.44355e-06
2.44396e-06
2.44412e-06
2.44343e-06
2.44415e-06
2.44446e-06
2.4443e-06
2.44391e-06
2.44373e-06
2.44396e-06
2.44435e-06
2.44446e-06
2.44414e-06
2.44439e-06
2.44442e-06
2.44405e-06
2.44379e-06
2.44411e-06
2.44446e-06
2.44437e-06
2.44405e-06
2.4433e-06
2.44277e-06
2.44342e-06
2.44413e-06
2.40913e-06
2.40737e-06
2.40889e-06
2.40718e-06
2.40668e-06
2.40664e-06
2.4067e-06
2.41005e-06
2.40964e-06
2.40888e-06
2.40631e-06
2.40332e-06
2.40309e-06
2.40309e-06
2.40333e-06
2.40823e-06
2.40741e-06
2.40717e-06
2.40331e-06
2.40312e-06
2.40306e-06
2.40306e-06
2.40313e-06
2.40332e-06
2.40835e-06
2.41084e-06
2.40914e-06
2.40668e-06
2.40308e-06
2.40305e-06
2.40307e-06
2.40307e-06
2.40306e-06
2.4031e-06
2.40769e-06
2.40932e-06
2.40728e-06
2.40663e-06
2.40309e-06
2.40305e-06
2.40307e-06
2.40307e-06
2.40307e-06
2.40311e-06
2.40767e-06
2.40611e-06
2.40668e-06
2.40332e-06
2.40312e-06
2.40306e-06
2.40306e-06
2.40313e-06
2.40334e-06
2.40792e-06
2.40813e-06
2.41003e-06
2.40822e-06
2.40332e-06
2.40309e-06
2.40309e-06
2.40333e-06
2.40893e-06
2.4083e-06
2.41097e-06
2.40963e-06
2.4074e-06
2.40835e-06
2.40769e-06
2.40765e-06
2.4079e-06
2.40826e-06
2.41144e-06
2.41084e-06
2.40934e-06
2.40609e-06
2.40809e-06
2.41096e-06
2.3872e-06
2.38707e-06
2.38712e-06
2.38433e-06
2.38435e-06
2.38416e-06
2.38445e-06
2.3885e-06
2.38809e-06
2.38711e-06
2.3836e-06
2.38026e-06
2.3798e-06
2.37978e-06
2.38026e-06
2.38724e-06
2.38554e-06
2.38432e-06
2.38025e-06
2.37903e-06
2.37896e-06
2.37895e-06
2.37902e-06
2.38029e-06
2.38823e-06
2.38915e-06
2.38709e-06
2.38436e-06
2.37979e-06
2.37895e-06
2.37893e-06
2.37893e-06
2.37894e-06
2.37976e-06
2.38777e-06
2.38765e-06
2.38691e-06
2.38413e-06
2.37976e-06
2.37894e-06
2.37892e-06
2.37892e-06
2.37894e-06
2.37977e-06
2.38741e-06
2.38413e-06
2.38442e-06
2.38024e-06
2.37901e-06
2.37893e-06
2.37893e-06
2.379e-06
2.38027e-06
2.38817e-06
2.38847e-06
2.38851e-06
2.38723e-06
2.38027e-06
2.37974e-06
2.37973e-06
2.38025e-06
2.38941e-06
2.38708e-06
2.38873e-06
2.38809e-06
2.38553e-06
2.38822e-06
2.38775e-06
2.38739e-06
2.38815e-06
2.38712e-06
2.38963e-06
2.38912e-06
2.38755e-06
2.38415e-06
2.38845e-06
2.38876e-06
2.36218e-06
2.36213e-06
2.36236e-06
2.3592e-06
2.35927e-06
2.35898e-06
2.3595e-06
2.36383e-06
2.36343e-06
2.36237e-06
2.35759e-06
2.35443e-06
2.35428e-06
2.35428e-06
2.3545e-06
2.36185e-06
2.36107e-06
2.35918e-06
2.35443e-06
2.3541e-06
2.35406e-06
2.35407e-06
2.35411e-06
2.35446e-06
2.36379e-06
2.36447e-06
2.36217e-06
2.35927e-06
2.35426e-06
2.35406e-06
2.35404e-06
2.35405e-06
2.35407e-06
2.35428e-06
2.36388e-06
2.36283e-06
2.36206e-06
2.35896e-06
2.35427e-06
2.35406e-06
2.35404e-06
2.35405e-06
2.35407e-06
2.35429e-06
2.36359e-06
2.35945e-06
2.35947e-06
2.35448e-06
2.3541e-06
2.35406e-06
2.35406e-06
2.35411e-06
2.3545e-06
2.36409e-06
2.36371e-06
2.36384e-06
2.36183e-06
2.35445e-06
2.35427e-06
2.35427e-06
2.35445e-06
2.36516e-06
2.36247e-06
2.36418e-06
2.36342e-06
2.36106e-06
2.36378e-06
2.36388e-06
2.36358e-06
2.36409e-06
2.36252e-06
2.36476e-06
2.36443e-06
2.3628e-06
2.35946e-06
2.36369e-06
2.3642e-06
2.33739e-06
2.33731e-06
2.33713e-06
2.33385e-06
2.33397e-06
2.33354e-06
2.33423e-06
2.33861e-06
2.33815e-06
2.33714e-06
2.33143e-06
2.32859e-06
2.32856e-06
2.32856e-06
2.32861e-06
2.33609e-06
2.33596e-06
2.33385e-06
2.32859e-06
2.32852e-06
2.32852e-06
2.32852e-06
2.32853e-06
2.32861e-06
2.33877e-06
2.33944e-06
2.33738e-06
2.33396e-06
2.32856e-06
2.32852e-06
2.32852e-06
2.32852e-06
2.32852e-06
2.32856e-06
2.33937e-06
2.33806e-06
2.33731e-06
2.33351e-06
2.32856e-06
2.32852e-06
2.32852e-06
2.32852e-06
2.32852e-06
2.32857e-06
2.33917e-06
2.33479e-06
2.33424e-06
2.32861e-06
2.32853e-06
2.32852e-06
2.32852e-06
2.32853e-06
2.32862e-06
2.33933e-06
2.33886e-06
2.33861e-06
2.33608e-06
2.3286e-06
2.32856e-06
2.32856e-06
2.3286e-06
2.34033e-06
2.33744e-06
2.33908e-06
2.33814e-06
2.33596e-06
2.33877e-06
2.33937e-06
2.33918e-06
2.33935e-06
2.33752e-06
2.33955e-06
2.33946e-06
2.33804e-06
2.33478e-06
2.33887e-06
2.33912e-06
2.31204e-06
2.31207e-06
2.31173e-06
2.3084e-06
2.30852e-06
2.30802e-06
2.30879e-06
2.31321e-06
2.31273e-06
2.31174e-06
2.30574e-06
2.30297e-06
2.30297e-06
2.30297e-06
2.30297e-06
2.31044e-06
2.31055e-06
2.3084e-06
2.30296e-06
2.30295e-06
2.30296e-06
2.30296e-06
2.30296e-06
2.30297e-06
2.31339e-06
2.31407e-06
2.31215e-06
2.30849e-06
2.30296e-06
2.30296e-06
2.30296e-06
2.30296e-06
2.30296e-06
2.30297e-06
2.31413e-06
2.31279e-06
2.31212e-06
2.30804e-06
2.30297e-06
2.30296e-06
2.30296e-06
2.30296e-06
2.30296e-06
2.30297e-06
2.31396e-06
2.30958e-06
2.30877e-06
2.30299e-06
2.30296e-06
2.30296e-06
2.30296e-06
2.30296e-06
2.30298e-06
2.31402e-06
2.31358e-06
2.3132e-06
2.31047e-06
2.30298e-06
2.30297e-06
2.30297e-06
2.30298e-06
2.31505e-06
2.31209e-06
2.31373e-06
2.31273e-06
2.31056e-06
2.3134e-06
2.31413e-06
2.31396e-06
2.31403e-06
2.31216e-06
2.31414e-06
2.31411e-06
2.31278e-06
2.30957e-06
2.31358e-06
2.31374e-06
2.28663e-06
2.2866e-06
2.28623e-06
2.28288e-06
2.283e-06
2.28247e-06
2.28328e-06
2.2877e-06
2.28722e-06
2.28624e-06
2.28018e-06
2.27741e-06
2.2774e-06
2.27741e-06
2.27741e-06
2.28489e-06
2.28506e-06
2.28289e-06
2.27741e-06
2.27741e-06
2.27741e-06
2.27741e-06
2.27741e-06
2.27741e-06
2.28789e-06
2.28857e-06
2.2867e-06
2.28297e-06
2.27741e-06
2.27741e-06
2.27741e-06
2.27741e-06
2.27741e-06
2.27741e-06
2.28866e-06
2.28731e-06
2.28657e-06
2.28249e-06
2.27742e-06
2.27741e-06
2.27741e-06
2.27741e-06
2.27741e-06
2.27741e-06
2.2885e-06
2.28412e-06
2.28328e-06
2.27742e-06
2.27741e-06
2.27741e-06
2.27741e-06
2.27741e-06
2.27741e-06
2.28854e-06
2.2881e-06
2.28772e-06
2.28491e-06
2.27741e-06
2.27741e-06
2.27741e-06
2.27741e-06
2.28959e-06
2.28662e-06
2.28823e-06
2.28723e-06
2.28507e-06
2.2879e-06
2.28868e-06
2.28851e-06
2.28855e-06
2.28667e-06
2.28863e-06
2.28862e-06
2.2873e-06
2.28411e-06
2.28812e-06
2.28824e-06
2.26112e-06
2.26109e-06
2.26069e-06
2.25735e-06
2.25748e-06
2.25695e-06
2.25775e-06
2.26218e-06
2.26169e-06
2.26071e-06
2.25458e-06
2.25186e-06
2.25186e-06
2.25186e-06
2.25186e-06
2.25935e-06
2.25953e-06
2.25734e-06
2.25186e-06
2.25186e-06
2.25186e-06
2.25186e-06
2.25186e-06
2.25186e-06
2.26237e-06
2.26304e-06
2.26116e-06
2.25746e-06
2.25186e-06
2.25186e-06
2.25186e-06
2.25186e-06
2.25186e-06
2.25186e-06
2.26315e-06
2.26179e-06
2.26112e-06
2.25695e-06
2.25186e-06
2.25186e-06
2.25186e-06
2.25186e-06
2.25186e-06
2.25186e-06
2.26298e-06
2.25859e-06
2.25774e-06
2.25186e-06
2.25186e-06
2.25186e-06
2.25186e-06
2.25186e-06
2.25186e-06
2.26302e-06
2.26257e-06
2.26219e-06
2.25935e-06
2.25186e-06
2.25186e-06
2.25186e-06
2.25186e-06
2.26406e-06
2.26109e-06
2.2627e-06
2.2617e-06
2.25953e-06
2.26238e-06
2.26317e-06
2.263e-06
2.26303e-06
2.26114e-06
2.26311e-06
2.2631e-06
2.2618e-06
2.25861e-06
2.26258e-06
2.2627e-06
2.23558e-06
2.23555e-06
2.23514e-06
2.23181e-06
2.23193e-06
2.23139e-06
2.23221e-06
2.23664e-06
2.23615e-06
2.23516e-06
2.22904e-06
2.22632e-06
2.22632e-06
2.22632e-06
2.22632e-06
2.2338e-06
2.23399e-06
2.23178e-06
2.22632e-06
2.22632e-06
2.22632e-06
2.22632e-06
2.22632e-06
2.22632e-06
2.23682e-06
2.23751e-06
2.23552e-06
2.23196e-06
2.22632e-06
2.22632e-06
2.22632e-06
2.22632e-06
2.22632e-06
2.22632e-06
2.23761e-06
2.23626e-06
2.23546e-06
2.23143e-06
2.22631e-06
2.22631e-06
2.22632e-06
2.22632e-06
2.22631e-06
2.22632e-06
2.23745e-06
2.23307e-06
2.23219e-06
2.22631e-06
2.22631e-06
2.22632e-06
2.22631e-06
2.22631e-06
2.22632e-06
2.23748e-06
2.23704e-06
2.23665e-06
2.2338e-06
2.22632e-06
2.22632e-06
2.22632e-06
2.22631e-06
2.23853e-06
2.23556e-06
2.23716e-06
2.23616e-06
2.23398e-06
2.23683e-06
2.23762e-06
2.23745e-06
2.23749e-06
2.2356e-06
2.23757e-06
2.23755e-06
2.23625e-06
2.23306e-06
2.23705e-06
2.23716e-06
2.21004e-06
2.21001e-06
2.20961e-06
2.20627e-06
2.20639e-06
2.20585e-06
2.20667e-06
2.2111e-06
2.21061e-06
2.20962e-06
2.20349e-06
2.20077e-06
2.20077e-06
2.20077e-06
2.20077e-06
2.20826e-06
2.20845e-06
2.20627e-06
2.20078e-06
2.20078e-06
2.20077e-06
2.20077e-06
2.20077e-06
2.20077e-06
2.21128e-06
2.21196e-06
2.20998e-06
2.20641e-06
2.20078e-06
2.20078e-06
2.20077e-06
2.20077e-06
2.20077e-06
2.20077e-06
2.21207e-06
2.21071e-06
2.20988e-06
2.20586e-06
2.20077e-06
2.20077e-06
2.20077e-06
2.20077e-06
2.20077e-06
2.20077e-06
2.21191e-06
2.20753e-06
2.20663e-06
2.20077e-06
2.20077e-06
2.20077e-06
2.20077e-06
2.20077e-06
2.20077e-06
2.21194e-06
2.2115e-06
2.21108e-06
2.20826e-06
2.20077e-06
2.20077e-06
2.20077e-06
2.20077e-06
2.21299e-06
2.21002e-06
2.21162e-06
2.21061e-06
2.20843e-06
2.21129e-06
2.21208e-06
2.21192e-06
2.21195e-06
2.21006e-06
2.21203e-06
2.21201e-06
2.21071e-06
2.20752e-06
2.21151e-06
2.21162e-06
2.1845e-06
2.18448e-06
2.18408e-06
2.18072e-06
2.18084e-06
2.18031e-06
2.18113e-06
2.18555e-06
2.18507e-06
2.18407e-06
2.17796e-06
2.17523e-06
2.17523e-06
2.17523e-06
2.17523e-06
2.18272e-06
2.18291e-06
2.18069e-06
2.17523e-06
2.17523e-06
2.17523e-06
2.17523e-06
2.17523e-06
2.17523e-06
2.18574e-06
2.18642e-06
2.1844e-06
2.18084e-06
2.17523e-06
2.17523e-06
2.17523e-06
2.17523e-06
2.17523e-06
2.17523e-06
2.18653e-06
2.18517e-06
2.18441e-06
2.18034e-06
2.17523e-06
2.17523e-06
2.17523e-06
2.17523e-06
2.17523e-06
2.17523e-06
2.18637e-06
2.18199e-06
2.18111e-06
2.17523e-06
2.17523e-06
2.17523e-06
2.17523e-06
2.17523e-06
2.17523e-06
2.1864e-06
2.18595e-06
2.18555e-06
2.18272e-06
2.17523e-06
2.17523e-06
2.17523e-06
2.17523e-06
2.18745e-06
2.18448e-06
2.18608e-06
2.18507e-06
2.1829e-06
2.18574e-06
2.18653e-06
2.18637e-06
2.18641e-06
2.18452e-06
2.18649e-06
2.18646e-06
2.18516e-06
2.18198e-06
2.18596e-06
2.18607e-06
2.15895e-06
2.15892e-06
2.15854e-06
2.15518e-06
2.1553e-06
2.15476e-06
2.15558e-06
2.16001e-06
2.15952e-06
2.15854e-06
2.15241e-06
2.14968e-06
2.14969e-06
2.14969e-06
2.14969e-06
2.15717e-06
2.15736e-06
2.15517e-06
2.14968e-06
2.14969e-06
2.14969e-06
2.14969e-06
2.14969e-06
2.14969e-06
2.1602e-06
2.16088e-06
2.15895e-06
2.1553e-06
2.14968e-06
2.14968e-06
2.14969e-06
2.14969e-06
2.14969e-06
2.14969e-06
2.16099e-06
2.15963e-06
2.15892e-06
2.15476e-06
2.14968e-06
2.14968e-06
2.14969e-06
2.14969e-06
2.14969e-06
2.14969e-06
2.16082e-06
2.15644e-06
2.15558e-06
2.14968e-06
2.14968e-06
2.14969e-06
2.14969e-06
2.14969e-06
2.14969e-06
2.16085e-06
2.16041e-06
2.16001e-06
2.15718e-06
2.14968e-06
2.14968e-06
2.14969e-06
2.14969e-06
2.1619e-06
2.15893e-06
2.16054e-06
2.15952e-06
2.15736e-06
2.1602e-06
2.16099e-06
2.16083e-06
2.16087e-06
2.15898e-06
2.16094e-06
2.16092e-06
2.15962e-06
2.15644e-06
2.16042e-06
2.16054e-06
2.13341e-06
2.13339e-06
2.13299e-06
2.12964e-06
2.12976e-06
2.12922e-06
2.13004e-06
2.13446e-06
2.13398e-06
2.133e-06
2.12688e-06
2.12414e-06
2.12414e-06
2.12414e-06
2.12414e-06
2.13163e-06
2.13182e-06
2.12965e-06
2.12414e-06
2.12414e-06
2.12414e-06
2.12414e-06
2.12414e-06
2.12414e-06
2.13465e-06
2.13534e-06
2.1334e-06
2.12974e-06
2.12414e-06
2.12414e-06
2.12414e-06
2.12414e-06
2.12414e-06
2.12414e-06
2.13544e-06
2.13409e-06
2.13337e-06
2.12925e-06
2.12414e-06
2.12414e-06
2.12414e-06
2.12414e-06
2.12414e-06
2.12414e-06
2.13528e-06
2.1309e-06
2.13001e-06
2.12414e-06
2.12414e-06
2.12414e-06
2.12414e-06
2.12414e-06
2.12414e-06
2.13531e-06
2.13487e-06
2.13446e-06
2.13163e-06
2.12414e-06
2.12415e-06
2.12415e-06
2.12415e-06
2.13637e-06
2.13339e-06
2.135e-06
2.13398e-06
2.13182e-06
2.13466e-06
2.13544e-06
2.13529e-06
2.13533e-06
2.13344e-06
2.1354e-06
2.13538e-06
2.13408e-06
2.1309e-06
2.13488e-06
2.13499e-06
2.10786e-06
2.10784e-06
2.10743e-06
2.1041e-06
2.10422e-06
2.10368e-06
2.10449e-06
2.10892e-06
2.10844e-06
2.10745e-06
2.10133e-06
2.0986e-06
2.0986e-06
2.0986e-06
2.0986e-06
2.10609e-06
2.10628e-06
2.10409e-06
2.09859e-06
2.0986e-06
2.0986e-06
2.0986e-06
2.0986e-06
2.0986e-06
2.10911e-06
2.1098e-06
2.10799e-06
2.10417e-06
2.0986e-06
2.0986e-06
2.0986e-06
2.0986e-06
2.0986e-06
2.0986e-06
2.1099e-06
2.10854e-06
2.10777e-06
2.10371e-06
2.0986e-06
2.0986e-06
2.0986e-06
2.0986e-06
2.0986e-06
2.0986e-06
2.10974e-06
2.10536e-06
2.10449e-06
2.0986e-06
2.0986e-06
2.0986e-06
2.0986e-06
2.0986e-06
2.0986e-06
2.10977e-06
2.10933e-06
2.10892e-06
2.1061e-06
2.0986e-06
2.0986e-06
2.0986e-06
2.0986e-06
2.11082e-06
2.10785e-06
2.10945e-06
2.10844e-06
2.10628e-06
2.10912e-06
2.10992e-06
2.10976e-06
2.10979e-06
2.10789e-06
2.10986e-06
2.10984e-06
2.10854e-06
2.10536e-06
2.10934e-06
2.10945e-06
2.08232e-06
2.08229e-06
2.08188e-06
2.07855e-06
2.07867e-06
2.07813e-06
2.07895e-06
2.08338e-06
2.08289e-06
2.08191e-06
2.07578e-06
2.07305e-06
2.07305e-06
2.07305e-06
2.07305e-06
2.08055e-06
2.08073e-06
2.07856e-06
2.07305e-06
2.07305e-06
2.07305e-06
2.07305e-06
2.07305e-06
2.07305e-06
2.08356e-06
2.08425e-06
2.08238e-06
2.07864e-06
2.07305e-06
2.07305e-06
2.07305e-06
2.07305e-06
2.07305e-06
2.07305e-06
2.08435e-06
2.083e-06
2.08235e-06
2.07814e-06
2.07305e-06
2.07306e-06
2.07305e-06
2.07305e-06
2.07305e-06
2.07305e-06
2.08419e-06
2.07981e-06
2.07892e-06
2.07306e-06
2.07306e-06
2.07305e-06
2.07305e-06
2.07305e-06
2.07306e-06
2.08422e-06
2.08378e-06
2.08338e-06
2.08054e-06
2.07306e-06
2.07305e-06
2.07305e-06
2.07305e-06
2.08527e-06
2.08231e-06
2.08391e-06
2.0829e-06
2.08073e-06
2.08358e-06
2.08438e-06
2.08421e-06
2.08424e-06
2.08234e-06
2.08431e-06
2.0843e-06
2.08299e-06
2.07982e-06
2.08379e-06
2.0839e-06
2.05678e-06
2.05676e-06
2.05634e-06
2.053e-06
2.05312e-06
2.05258e-06
2.05341e-06
2.05783e-06
2.05735e-06
2.05635e-06
2.05023e-06
2.04751e-06
2.04751e-06
2.04751e-06
2.04751e-06
2.055e-06
2.05519e-06
2.05299e-06
2.04751e-06
2.04751e-06
2.04751e-06
2.04751e-06
2.04751e-06
2.04751e-06
2.05802e-06
2.0587e-06
2.05677e-06
2.05311e-06
2.04751e-06
2.04751e-06
2.04751e-06
2.04751e-06
2.04751e-06
2.04751e-06
2.05881e-06
2.05745e-06
2.0567e-06
2.05257e-06
2.04751e-06
2.04751e-06
2.04751e-06
2.04751e-06
2.04751e-06
2.04751e-06
2.05865e-06
2.05427e-06
2.05341e-06
2.04751e-06
2.04751e-06
2.04751e-06
2.04751e-06
2.04751e-06
2.04751e-06
2.05868e-06
2.05824e-06
2.05785e-06
2.05499e-06
2.04751e-06
2.04751e-06
2.04751e-06
2.04751e-06
2.05973e-06
2.05676e-06
2.05836e-06
2.05736e-06
2.05518e-06
2.05803e-06
2.05882e-06
2.05866e-06
2.05869e-06
2.0568e-06
2.05877e-06
2.05875e-06
2.05745e-06
2.05427e-06
2.05824e-06
2.05836e-06
2.03123e-06
2.03121e-06
2.03079e-06
2.02746e-06
2.02758e-06
2.02704e-06
2.02786e-06
2.03229e-06
2.0318e-06
2.03081e-06
2.02469e-06
2.02196e-06
2.02196e-06
2.02196e-06
2.02197e-06
2.02946e-06
2.02964e-06
2.02745e-06
2.02196e-06
2.02196e-06
2.02196e-06
2.02197e-06
2.02197e-06
2.02197e-06
2.03248e-06
2.03316e-06
2.03117e-06
2.02756e-06
2.02196e-06
2.02196e-06
2.02196e-06
2.02197e-06
2.02197e-06
2.02197e-06
2.03327e-06
2.03191e-06
2.03122e-06
2.02704e-06
2.02196e-06
2.02196e-06
2.02196e-06
2.02197e-06
2.02197e-06
2.02197e-06
2.0331e-06
2.02872e-06
2.02786e-06
2.02196e-06
2.02196e-06
2.02196e-06
2.02197e-06
2.02197e-06
2.02197e-06
2.03314e-06
2.03269e-06
2.03228e-06
2.02945e-06
2.02196e-06
2.02197e-06
2.02197e-06
2.02197e-06
2.03419e-06
2.03121e-06
2.03282e-06
2.0318e-06
2.02964e-06
2.03248e-06
2.03326e-06
2.03312e-06
2.03314e-06
2.03126e-06
2.03322e-06
2.0332e-06
2.0319e-06
2.0287e-06
2.03269e-06
2.03282e-06
2.00569e-06
2.00566e-06
2.00525e-06
2.00192e-06
2.00205e-06
2.0015e-06
2.00231e-06
2.00674e-06
2.00626e-06
2.00526e-06
1.99915e-06
1.99642e-06
1.99642e-06
1.99642e-06
1.99642e-06
2.00391e-06
2.0041e-06
2.00191e-06
1.99642e-06
1.99642e-06
1.99642e-06
1.99642e-06
1.99642e-06
1.99642e-06
2.00693e-06
2.00761e-06
2.00564e-06
2.00203e-06
1.99642e-06
1.99642e-06
1.99642e-06
1.99642e-06
1.99642e-06
1.99642e-06
2.00772e-06
2.00637e-06
2.00567e-06
2.0015e-06
1.99642e-06
1.99642e-06
1.99642e-06
1.99642e-06
1.99642e-06
1.99642e-06
2.00756e-06
2.00318e-06
2.00231e-06
1.99642e-06
1.99642e-06
1.99642e-06
1.99642e-06
1.99643e-06
1.99643e-06
2.0076e-06
2.00715e-06
2.00674e-06
2.0039e-06
1.99641e-06
1.99642e-06
1.99642e-06
1.99643e-06
2.00865e-06
2.00568e-06
2.00728e-06
2.00625e-06
2.00409e-06
2.00693e-06
2.0077e-06
2.00757e-06
2.0076e-06
2.00573e-06
2.00768e-06
2.00763e-06
2.00643e-06
2.00311e-06
2.00714e-06
2.00727e-06
1.98015e-06
1.98013e-06
1.97971e-06
1.97637e-06
1.97649e-06
1.97595e-06
1.97678e-06
1.9812e-06
1.98072e-06
1.97972e-06
1.9736e-06
1.97088e-06
1.97088e-06
1.97088e-06
1.97088e-06
1.97837e-06
1.97856e-06
1.97636e-06
1.97088e-06
1.97088e-06
1.97088e-06
1.97088e-06
1.97088e-06
1.97088e-06
1.98139e-06
1.98207e-06
1.98014e-06
1.97652e-06
1.97088e-06
1.97088e-06
1.97088e-06
1.97088e-06
1.97088e-06
1.97088e-06
1.98218e-06
1.98082e-06
1.98005e-06
1.97595e-06
1.97088e-06
1.97088e-06
1.97088e-06
1.97088e-06
1.97088e-06
1.97088e-06
1.98201e-06
1.97763e-06
1.97676e-06
1.97087e-06
1.97088e-06
1.97088e-06
1.97088e-06
1.97088e-06
1.97088e-06
1.98205e-06
1.98161e-06
1.9812e-06
1.97837e-06
1.97087e-06
1.97088e-06
1.97088e-06
1.97088e-06
1.9831e-06
1.98012e-06
1.98173e-06
1.98071e-06
1.97856e-06
1.98139e-06
1.98217e-06
1.98203e-06
1.98206e-06
1.98018e-06
1.98213e-06
1.98212e-06
1.98088e-06
1.97762e-06
1.98159e-06
1.98172e-06
1.9546e-06
1.95457e-06
1.95416e-06
1.95083e-06
1.95095e-06
1.95041e-06
1.95123e-06
1.95565e-06
1.95517e-06
1.95418e-06
1.94806e-06
1.94533e-06
1.94533e-06
1.94533e-06
1.94533e-06
1.95282e-06
1.95301e-06
1.95082e-06
1.94534e-06
1.94533e-06
1.94533e-06
1.94533e-06
1.94533e-06
1.94533e-06
1.95584e-06
1.95652e-06
1.95454e-06
1.95096e-06
1.94533e-06
1.94533e-06
1.94533e-06
1.94533e-06
1.94533e-06
1.94533e-06
1.95663e-06
1.95527e-06
1.95453e-06
1.9504e-06
1.94533e-06
1.94533e-06
1.94533e-06
1.94533e-06
1.94533e-06
1.94533e-06
1.95647e-06
1.95209e-06
1.95123e-06
1.94533e-06
1.94533e-06
1.94533e-06
1.94533e-06
1.94533e-06
1.94533e-06
1.95651e-06
1.95606e-06
1.95567e-06
1.95282e-06
1.94534e-06
1.94533e-06
1.94533e-06
1.94533e-06
1.95756e-06
1.95458e-06
1.95618e-06
1.95517e-06
1.953e-06
1.95584e-06
1.95664e-06
1.95652e-06
1.95653e-06
1.95463e-06
1.95659e-06
1.9565e-06
1.95521e-06
1.95215e-06
1.95609e-06
1.95619e-06
1.92905e-06
1.92902e-06
1.92862e-06
1.92529e-06
1.92542e-06
1.92487e-06
1.92567e-06
1.93011e-06
1.92962e-06
1.92863e-06
1.92251e-06
1.91979e-06
1.91979e-06
1.91979e-06
1.91979e-06
1.92728e-06
1.92747e-06
1.92528e-06
1.91979e-06
1.91979e-06
1.91979e-06
1.91979e-06
1.91979e-06
1.91979e-06
1.9303e-06
1.93098e-06
1.92899e-06
1.9254e-06
1.91979e-06
1.91979e-06
1.91979e-06
1.91979e-06
1.91979e-06
1.91979e-06
1.93109e-06
1.92973e-06
1.92899e-06
1.92486e-06
1.91979e-06
1.91979e-06
1.91979e-06
1.91979e-06
1.91979e-06
1.91979e-06
1.93092e-06
1.92654e-06
1.92569e-06
1.91979e-06
1.91979e-06
1.91979e-06
1.91979e-06
1.91979e-06
1.91979e-06
1.93096e-06
1.93051e-06
1.93013e-06
1.92728e-06
1.91979e-06
1.91979e-06
1.91979e-06
1.91979e-06
1.93201e-06
1.92904e-06
1.93064e-06
1.92964e-06
1.92746e-06
1.9303e-06
1.93111e-06
1.93097e-06
1.93097e-06
1.92909e-06
1.93104e-06
1.93098e-06
1.92966e-06
1.92664e-06
1.93051e-06
1.93068e-06
1.90352e-06
1.90347e-06
1.90307e-06
1.89974e-06
1.89988e-06
1.89932e-06
1.90013e-06
1.90456e-06
1.90408e-06
1.90309e-06
1.89697e-06
1.89425e-06
1.89425e-06
1.89424e-06
1.89424e-06
1.90173e-06
1.90192e-06
1.89973e-06
1.89425e-06
1.89424e-06
1.89424e-06
1.89424e-06
1.89424e-06
1.89424e-06
1.90476e-06
1.90544e-06
1.90352e-06
1.89986e-06
1.89425e-06
1.89425e-06
1.89425e-06
1.89425e-06
1.89425e-06
1.89425e-06
1.90555e-06
1.90419e-06
1.9035e-06
1.89932e-06
1.89425e-06
1.89425e-06
1.89425e-06
1.89425e-06
1.89425e-06
1.89425e-06
1.90538e-06
1.901e-06
1.90015e-06
1.89425e-06
1.89425e-06
1.89425e-06
1.89425e-06
1.89425e-06
1.89425e-06
1.90541e-06
1.90497e-06
1.90458e-06
1.90174e-06
1.89424e-06
1.89425e-06
1.89425e-06
1.89425e-06
1.90647e-06
1.90349e-06
1.90509e-06
1.90409e-06
1.90192e-06
1.90476e-06
1.90554e-06
1.9054e-06
1.90541e-06
1.90354e-06
1.9055e-06
1.90545e-06
1.90425e-06
1.90093e-06
1.90493e-06
1.90512e-06
1.87797e-06
1.87793e-06
1.87753e-06
1.87419e-06
1.87433e-06
1.87378e-06
1.87459e-06
1.87902e-06
1.87854e-06
1.87754e-06
1.87143e-06
1.8687e-06
1.8687e-06
1.8687e-06
1.8687e-06
1.87619e-06
1.87638e-06
1.87419e-06
1.8687e-06
1.8687e-06
1.8687e-06
1.8687e-06
1.8687e-06
1.8687e-06
1.87921e-06
1.87989e-06
1.87792e-06
1.87431e-06
1.8687e-06
1.8687e-06
1.8687e-06
1.8687e-06
1.8687e-06
1.8687e-06
1.88e-06
1.87865e-06
1.87794e-06
1.87378e-06
1.8687e-06
1.8687e-06
1.8687e-06
1.8687e-06
1.8687e-06
1.8687e-06
1.87984e-06
1.87546e-06
1.8746e-06
1.8687e-06
1.8687e-06
1.8687e-06
1.8687e-06
1.8687e-06
1.8687e-06
1.87988e-06
1.87943e-06
1.87903e-06
1.87619e-06
1.8687e-06
1.8687e-06
1.86871e-06
1.8687e-06
1.88092e-06
1.87795e-06
1.87956e-06
1.87854e-06
1.87638e-06
1.87922e-06
1.88e-06
1.87986e-06
1.87988e-06
1.878e-06
1.87996e-06
1.87995e-06
1.87871e-06
1.87545e-06
1.87941e-06
1.87954e-06
1.85236e-06
1.85236e-06
1.85199e-06
1.84866e-06
1.84878e-06
1.84823e-06
1.84904e-06
1.85349e-06
1.853e-06
1.852e-06
1.84588e-06
1.84316e-06
1.84316e-06
1.84316e-06
1.84316e-06
1.85065e-06
1.85084e-06
1.84864e-06
1.84316e-06
1.84316e-06
1.84316e-06
1.84316e-06
1.84316e-06
1.84316e-06
1.85367e-06
1.85435e-06
1.85243e-06
1.84878e-06
1.84316e-06
1.84316e-06
1.84316e-06
1.84316e-06
1.84316e-06
1.84316e-06
1.85446e-06
1.8531e-06
1.85237e-06
1.84822e-06
1.84316e-06
1.84316e-06
1.84316e-06
1.84316e-06
1.84316e-06
1.84316e-06
1.85429e-06
1.84991e-06
1.84906e-06
1.84316e-06
1.84316e-06
1.84316e-06
1.84315e-06
1.84315e-06
1.84316e-06
1.85433e-06
1.85388e-06
1.85349e-06
1.85064e-06
1.84316e-06
1.84316e-06
1.84315e-06
1.84315e-06
1.85538e-06
1.85241e-06
1.85401e-06
1.853e-06
1.85082e-06
1.85366e-06
1.85446e-06
1.85434e-06
1.85435e-06
1.85245e-06
1.85441e-06
1.85434e-06
1.85306e-06
1.84994e-06
1.85389e-06
1.85405e-06
1.82682e-06
1.82682e-06
1.82644e-06
1.82311e-06
1.82321e-06
1.82268e-06
1.82351e-06
1.82795e-06
1.82746e-06
1.82645e-06
1.82033e-06
1.81761e-06
1.81761e-06
1.81761e-06
1.81761e-06
1.82511e-06
1.82529e-06
1.82309e-06
1.81761e-06
1.81761e-06
1.81761e-06
1.81761e-06
1.81761e-06
1.81761e-06
1.82812e-06
1.8288e-06
1.8269e-06
1.82321e-06
1.81761e-06
1.81761e-06
1.81761e-06
1.81761e-06
1.81761e-06
1.81761e-06
1.82891e-06
1.82755e-06
1.82686e-06
1.82268e-06
1.81761e-06
1.81761e-06
1.81761e-06
1.81761e-06
1.81761e-06
1.81761e-06
1.82875e-06
1.82437e-06
1.82351e-06
1.81761e-06
1.81761e-06
1.81761e-06
1.81761e-06
1.81761e-06
1.81761e-06
1.82878e-06
1.82834e-06
1.82794e-06
1.82509e-06
1.81762e-06
1.81761e-06
1.81761e-06
1.81761e-06
1.82984e-06
1.82685e-06
1.82846e-06
1.82745e-06
1.82528e-06
1.82811e-06
1.82891e-06
1.82879e-06
1.82879e-06
1.82692e-06
1.82887e-06
1.8288e-06
1.82746e-06
1.82444e-06
1.82833e-06
1.8285e-06
1.80135e-06
1.80133e-06
1.80089e-06
1.79756e-06
1.79767e-06
1.79714e-06
1.79797e-06
1.8024e-06
1.80191e-06
1.80091e-06
1.79478e-06
1.79207e-06
1.79207e-06
1.79207e-06
1.79207e-06
1.79956e-06
1.79975e-06
1.79755e-06
1.79207e-06
1.79207e-06
1.79207e-06
1.79207e-06
1.79207e-06
1.79207e-06
1.80258e-06
1.80326e-06
1.80129e-06
1.79769e-06
1.79207e-06
1.79207e-06
1.79207e-06
1.79207e-06
1.79207e-06
1.79207e-06
1.80337e-06
1.80201e-06
1.80131e-06
1.79714e-06
1.79207e-06
1.79207e-06
1.79207e-06
1.79207e-06
1.79207e-06
1.79207e-06
1.80321e-06
1.79883e-06
1.79796e-06
1.79207e-06
1.79207e-06
1.79207e-06
1.79207e-06
1.79207e-06
1.79207e-06
1.80324e-06
1.80279e-06
1.80239e-06
1.79954e-06
1.79207e-06
1.79207e-06
1.79207e-06
1.79207e-06
1.80429e-06
1.80132e-06
1.80292e-06
1.80191e-06
1.79973e-06
1.80258e-06
1.80339e-06
1.80324e-06
1.80325e-06
1.80137e-06
1.80332e-06
1.80328e-06
1.80195e-06
1.79887e-06
1.80282e-06
1.80293e-06
1.77575e-06
1.77577e-06
1.77535e-06
1.77202e-06
1.77213e-06
1.7716e-06
1.77243e-06
1.77685e-06
1.77637e-06
1.77536e-06
1.76924e-06
1.76652e-06
1.76652e-06
1.76653e-06
1.76653e-06
1.77402e-06
1.77421e-06
1.77201e-06
1.76652e-06
1.76653e-06
1.76653e-06
1.76653e-06
1.76653e-06
1.76653e-06
1.77704e-06
1.77772e-06
1.7758e-06
1.77216e-06
1.76652e-06
1.76653e-06
1.76652e-06
1.76653e-06
1.76653e-06
1.76653e-06
1.77783e-06
1.77647e-06
1.77577e-06
1.77161e-06
1.76652e-06
1.76652e-06
1.76652e-06
1.76652e-06
1.76652e-06
1.76652e-06
1.77766e-06
1.77328e-06
1.77241e-06
1.76652e-06
1.76652e-06
1.76652e-06
1.76652e-06
1.76652e-06
1.76652e-06
1.77769e-06
1.77725e-06
1.77684e-06
1.77399e-06
1.76652e-06
1.76652e-06
1.76652e-06
1.76652e-06
1.77875e-06
1.77577e-06
1.77737e-06
1.77636e-06
1.77419e-06
1.77704e-06
1.77784e-06
1.77767e-06
1.7777e-06
1.77582e-06
1.77778e-06
1.77776e-06
1.77646e-06
1.77329e-06
1.77725e-06
1.77737e-06
1.75025e-06
1.75022e-06
1.74982e-06
1.74648e-06
1.7466e-06
1.74606e-06
1.74688e-06
1.75131e-06
1.75082e-06
1.74983e-06
1.74369e-06
1.74098e-06
1.74098e-06
1.74098e-06
1.74098e-06
1.74847e-06
1.74866e-06
1.74645e-06
1.74098e-06
1.74098e-06
1.74098e-06
1.74098e-06
1.74098e-06
1.74098e-06
1.75149e-06
1.75218e-06
1.75021e-06
1.74661e-06
1.74098e-06
1.74098e-06
1.74098e-06
1.74098e-06
1.74098e-06
1.74098e-06
1.75228e-06
1.75093e-06
1.75013e-06
1.74607e-06
1.74098e-06
1.74098e-06
1.74098e-06
1.74098e-06
1.74098e-06
1.74098e-06
1.75212e-06
1.74774e-06
1.74686e-06
1.74098e-06
1.74098e-06
1.74098e-06
1.74098e-06
1.74098e-06
1.74098e-06
1.75215e-06
1.7517e-06
1.75132e-06
1.74846e-06
1.74098e-06
1.74098e-06
1.74098e-06
1.74098e-06
1.7532e-06
1.75023e-06
1.75183e-06
1.75083e-06
1.74865e-06
1.75149e-06
1.75228e-06
1.75212e-06
1.75216e-06
1.75027e-06
1.75224e-06
1.75222e-06
1.75091e-06
1.74773e-06
1.75171e-06
1.75183e-06
1.72471e-06
1.72469e-06
1.72427e-06
1.72094e-06
1.72106e-06
1.72052e-06
1.72133e-06
1.72576e-06
1.72528e-06
1.72429e-06
1.71816e-06
1.71544e-06
1.71544e-06
1.71544e-06
1.71544e-06
1.72293e-06
1.72312e-06
1.72094e-06
1.71545e-06
1.71544e-06
1.71544e-06
1.71544e-06
1.71544e-06
1.71544e-06
1.72595e-06
1.72663e-06
1.72463e-06
1.72108e-06
1.71544e-06
1.71544e-06
1.71544e-06
1.71544e-06
1.71544e-06
1.71544e-06
1.72673e-06
1.72538e-06
1.72456e-06
1.72054e-06
1.71544e-06
1.71544e-06
1.71544e-06
1.71544e-06
1.71544e-06
1.71544e-06
1.72657e-06
1.72219e-06
1.72129e-06
1.71544e-06
1.71544e-06
1.71544e-06
1.71544e-06
1.71544e-06
1.71544e-06
1.72661e-06
1.72616e-06
1.72575e-06
1.7229e-06
1.71544e-06
1.71544e-06
1.71544e-06
1.71544e-06
1.72766e-06
1.72469e-06
1.72629e-06
1.72527e-06
1.72309e-06
1.72595e-06
1.72675e-06
1.72658e-06
1.72661e-06
1.72473e-06
1.72669e-06
1.72667e-06
1.72538e-06
1.72219e-06
1.72616e-06
1.72628e-06
1.69916e-06
1.69913e-06
1.69875e-06
1.69539e-06
1.69551e-06
1.69497e-06
1.69579e-06
1.70022e-06
1.69973e-06
1.69874e-06
1.69262e-06
1.6899e-06
1.6899e-06
1.6899e-06
1.6899e-06
1.69738e-06
1.69757e-06
1.69537e-06
1.6899e-06
1.6899e-06
1.6899e-06
1.6899e-06
1.6899e-06
1.6899e-06
1.7004e-06
1.70109e-06
1.69905e-06
1.69552e-06
1.68989e-06
1.6899e-06
1.68989e-06
1.68989e-06
1.68989e-06
1.68989e-06
1.70119e-06
1.69984e-06
1.69911e-06
1.69497e-06
1.68989e-06
1.68989e-06
1.68989e-06
1.68989e-06
1.68989e-06
1.68989e-06
1.70103e-06
1.69665e-06
1.69577e-06
1.68989e-06
1.68989e-06
1.68989e-06
1.68989e-06
1.68989e-06
1.68989e-06
1.70106e-06
1.70062e-06
1.70023e-06
1.69739e-06
1.68989e-06
1.68989e-06
1.68989e-06
1.68989e-06
1.70211e-06
1.69914e-06
1.70075e-06
1.69974e-06
1.69757e-06
1.70041e-06
1.7012e-06
1.70104e-06
1.70107e-06
1.69918e-06
1.70115e-06
1.70113e-06
1.69983e-06
1.69665e-06
1.70064e-06
1.70075e-06
1.67362e-06
1.6736e-06
1.6732e-06
1.66985e-06
1.66997e-06
1.66943e-06
1.67025e-06
1.67467e-06
1.67419e-06
1.67321e-06
1.66708e-06
1.66435e-06
1.66435e-06
1.66435e-06
1.66435e-06
1.67184e-06
1.67203e-06
1.66985e-06
1.66435e-06
1.66435e-06
1.66435e-06
1.66435e-06
1.66435e-06
1.66435e-06
1.67486e-06
1.67555e-06
1.67362e-06
1.66999e-06
1.66435e-06
1.66435e-06
1.66435e-06
1.66435e-06
1.66435e-06
1.66435e-06
1.67565e-06
1.6743e-06
1.67357e-06
1.66943e-06
1.66435e-06
1.66435e-06
1.66435e-06
1.66435e-06
1.66435e-06
1.66435e-06
1.67549e-06
1.67111e-06
1.67023e-06
1.66435e-06
1.66435e-06
1.66435e-06
1.66435e-06
1.66435e-06
1.66435e-06
1.67552e-06
1.67507e-06
1.67466e-06
1.67183e-06
1.66435e-06
1.66435e-06
1.66435e-06
1.66435e-06
1.67657e-06
1.6736e-06
1.6752e-06
1.67418e-06
1.67202e-06
1.67486e-06
1.67565e-06
1.67549e-06
1.67554e-06
1.67364e-06
1.67561e-06
1.67558e-06
1.67429e-06
1.67111e-06
1.67509e-06
1.6752e-06
1.64807e-06
1.64805e-06
1.64766e-06
1.6443e-06
1.64442e-06
1.64389e-06
1.6447e-06
1.64913e-06
1.64864e-06
1.64766e-06
1.64153e-06
1.63881e-06
1.63881e-06
1.63881e-06
1.63881e-06
1.6463e-06
1.64649e-06
1.64429e-06
1.6388e-06
1.6388e-06
1.63881e-06
1.63881e-06
1.63881e-06
1.63881e-06
1.64932e-06
1.65e-06
1.64807e-06
1.64443e-06
1.6388e-06
1.6388e-06
1.6388e-06
1.63881e-06
1.63881e-06
1.63881e-06
1.65011e-06
1.64875e-06
1.64802e-06
1.64389e-06
1.6388e-06
1.6388e-06
1.6388e-06
1.63881e-06
1.63881e-06
1.63881e-06
1.64994e-06
1.64556e-06
1.64469e-06
1.6388e-06
1.6388e-06
1.6388e-06
1.6388e-06
1.63881e-06
1.63881e-06
1.64997e-06
1.64953e-06
1.64912e-06
1.64629e-06
1.6388e-06
1.6388e-06
1.63881e-06
1.63881e-06
1.65103e-06
1.64806e-06
1.64966e-06
1.64864e-06
1.64648e-06