/*--------------------------------*- C++ -*----------------------------------*\
| =========                 |                                                 |
| \\      /  F ield         | OpenFOAM: The Open Source CFD Toolbox           |
|  \\    /   O peration     | Version:  v2012                                 |
|   \\  /    A nd           | Website:  www.openfoam.com                      |
|    \\/     M anipulation  |                                                 |
\*---------------------------------------------------------------------------*/
FoamFile
{
    version     2.0;
    format      ascii;
    class       volScalarField;
    location    "0";
    object      p;
}
// * * * * * * * * * * * * * * * * * * * * * * * * * * * * * * * * * * * * * //

dimensions      [0 2 -2 0 0 0 0];


internalField   nonuniform List<scalar> 
244288
(
5.65424e-07
5.65279e-07
5.65362e-07
5.65416e-07
5.65418e-07
5.6541e-07
5.65351e-07
5.65279e-07
5.65387e-07
5.65402e-07
5.65371e-07
5.65355e-07
5.65372e-07
5.65401e-07
5.65374e-07
5.65363e-07
5.65403e-07
5.6533e-07
5.65244e-07
5.65212e-07
5.6525e-07
5.65338e-07
5.65401e-07
5.65338e-07
5.65418e-07
5.65373e-07
5.65245e-07
5.65134e-07
5.65096e-07
5.65143e-07
5.65258e-07
5.6538e-07
5.65413e-07
5.65427e-07
5.65421e-07
5.65358e-07
5.65214e-07
5.65097e-07
5.65057e-07
5.65106e-07
5.65228e-07
5.65368e-07
5.65414e-07
5.65414e-07
5.65376e-07
5.65253e-07
5.65145e-07
5.65107e-07
5.65153e-07
5.65266e-07
5.65382e-07
5.65407e-07
5.65356e-07
5.65405e-07
5.65342e-07
5.65261e-07
5.6523e-07
5.65267e-07
5.65349e-07
5.65402e-07
5.65314e-07
5.65379e-07
5.65405e-07
5.65383e-07
5.65371e-07
5.65384e-07
5.65403e-07
5.6537e-07
5.65343e-07
5.65416e-07
5.65417e-07
5.65409e-07
5.65316e-07
5.59037e-07
5.5897e-07
5.58942e-07
5.58459e-07
5.58429e-07
5.58434e-07
5.58443e-07
5.5884e-07
5.58939e-07
5.58943e-07
5.58364e-07
5.57513e-07
5.57504e-07
5.57504e-07
5.57513e-07
5.58226e-07
5.5845e-07
5.5846e-07
5.57513e-07
5.575e-07
5.57492e-07
5.57492e-07
5.57499e-07
5.57513e-07
5.58342e-07
5.58908e-07
5.59038e-07
5.5843e-07
5.57505e-07
5.57492e-07
5.57485e-07
5.57485e-07
5.57491e-07
5.57503e-07
5.58282e-07
5.58844e-07
5.58971e-07
5.58435e-07
5.57505e-07
5.57492e-07
5.57485e-07
5.57485e-07
5.57492e-07
5.57504e-07
5.58266e-07
5.58531e-07
5.58444e-07
5.57514e-07
5.575e-07
5.57492e-07
5.57492e-07
5.57499e-07
5.57513e-07
5.58304e-07
5.58878e-07
5.58842e-07
5.58227e-07
5.57513e-07
5.57504e-07
5.57504e-07
5.57513e-07
5.5809e-07
5.58396e-07
5.58958e-07
5.58941e-07
5.58452e-07
5.58343e-07
5.58283e-07
5.58267e-07
5.58305e-07
5.58396e-07
5.58729e-07
5.58909e-07
5.58846e-07
5.58532e-07
5.58879e-07
5.58959e-07
5.53484e-07
5.534e-07
5.53407e-07
5.52795e-07
5.52764e-07
5.52772e-07
5.52777e-07
5.53282e-07
5.53402e-07
5.53407e-07
5.52722e-07
5.5159e-07
5.51592e-07
5.51592e-07
5.5159e-07
5.52522e-07
5.52805e-07
5.52795e-07
5.5159e-07
5.51597e-07
5.516e-07
5.516e-07
5.51597e-07
5.5159e-07
5.52636e-07
5.5335e-07
5.53484e-07
5.52764e-07
5.51592e-07
5.516e-07
5.51603e-07
5.51603e-07
5.516e-07
5.51592e-07
5.52562e-07
5.53267e-07
5.534e-07
5.52773e-07
5.51592e-07
5.516e-07
5.51603e-07
5.51603e-07
5.516e-07
5.51592e-07
5.52548e-07
5.52873e-07
5.52777e-07
5.5159e-07
5.51597e-07
5.516e-07
5.516e-07
5.51597e-07
5.5159e-07
5.52584e-07
5.53311e-07
5.53283e-07
5.52523e-07
5.5159e-07
5.51592e-07
5.51592e-07
5.5159e-07
5.52315e-07
5.52732e-07
5.53416e-07
5.53402e-07
5.52806e-07
5.52637e-07
5.52562e-07
5.52548e-07
5.52584e-07
5.52732e-07
5.53147e-07
5.53351e-07
5.53268e-07
5.52873e-07
5.53311e-07
5.53416e-07
5.47548e-07
5.47464e-07
5.4747e-07
5.46855e-07
5.46823e-07
5.46832e-07
5.46837e-07
5.47345e-07
5.47466e-07
5.4747e-07
5.46781e-07
5.45651e-07
5.45651e-07
5.4565e-07
5.45651e-07
5.46581e-07
5.46867e-07
5.46855e-07
5.45651e-07
5.45653e-07
5.45653e-07
5.45653e-07
5.45652e-07
5.45651e-07
5.46696e-07
5.47414e-07
5.47549e-07
5.46823e-07
5.45651e-07
5.45653e-07
5.45654e-07
5.45654e-07
5.45653e-07
5.4565e-07
5.46621e-07
5.4733e-07
5.47465e-07
5.46832e-07
5.45651e-07
5.45653e-07
5.45654e-07
5.45654e-07
5.45653e-07
5.4565e-07
5.46606e-07
5.46935e-07
5.46837e-07
5.45651e-07
5.45653e-07
5.45653e-07
5.45653e-07
5.45653e-07
5.45651e-07
5.46644e-07
5.47374e-07
5.47345e-07
5.46581e-07
5.45651e-07
5.45651e-07
5.45651e-07
5.45651e-07
5.46374e-07
5.46792e-07
5.4748e-07
5.47466e-07
5.46867e-07
5.46696e-07
5.46621e-07
5.46606e-07
5.46644e-07
5.46792e-07
5.4721e-07
5.47414e-07
5.47331e-07
5.46935e-07
5.47374e-07
5.4748e-07
5.41602e-07
5.41518e-07
5.41524e-07
5.40907e-07
5.40874e-07
5.40883e-07
5.40888e-07
5.41398e-07
5.41519e-07
5.41524e-07
5.40832e-07
5.39698e-07
5.39696e-07
5.39696e-07
5.39698e-07
5.40631e-07
5.40918e-07
5.40907e-07
5.39698e-07
5.39697e-07
5.39697e-07
5.39697e-07
5.39697e-07
5.39698e-07
5.40747e-07
5.41467e-07
5.41602e-07
5.40874e-07
5.39696e-07
5.39697e-07
5.39697e-07
5.39697e-07
5.39697e-07
5.39696e-07
5.40671e-07
5.41383e-07
5.41518e-07
5.40883e-07
5.39696e-07
5.39697e-07
5.39697e-07
5.39697e-07
5.39697e-07
5.39696e-07
5.40656e-07
5.40987e-07
5.40888e-07
5.39698e-07
5.39697e-07
5.39697e-07
5.39697e-07
5.39697e-07
5.39698e-07
5.40694e-07
5.41427e-07
5.41398e-07
5.40631e-07
5.39698e-07
5.39696e-07
5.39696e-07
5.39698e-07
5.40424e-07
5.40844e-07
5.41533e-07
5.41519e-07
5.40918e-07
5.40747e-07
5.40671e-07
5.40656e-07
5.40694e-07
5.40844e-07
5.41263e-07
5.41467e-07
5.41384e-07
5.40987e-07
5.41427e-07
5.41533e-07
5.35649e-07
5.35565e-07
5.35571e-07
5.34954e-07
5.34921e-07
5.3493e-07
5.34935e-07
5.35445e-07
5.35566e-07
5.35571e-07
5.34879e-07
5.33744e-07
5.33743e-07
5.33743e-07
5.33744e-07
5.34678e-07
5.34966e-07
5.34954e-07
5.33744e-07
5.33744e-07
5.33743e-07
5.33743e-07
5.33744e-07
5.33744e-07
5.34794e-07
5.35515e-07
5.3565e-07
5.34921e-07
5.33743e-07
5.33743e-07
5.33743e-07
5.33743e-07
5.33743e-07
5.33743e-07
5.34718e-07
5.35431e-07
5.35565e-07
5.3493e-07
5.33743e-07
5.33743e-07
5.33743e-07
5.33743e-07
5.33743e-07
5.33743e-07
5.34703e-07
5.35034e-07
5.34935e-07
5.33744e-07
5.33744e-07
5.33743e-07
5.33743e-07
5.33744e-07
5.33744e-07
5.34741e-07
5.35475e-07
5.35445e-07
5.34678e-07
5.33744e-07
5.33743e-07
5.33743e-07
5.33744e-07
5.34471e-07
5.34891e-07
5.35581e-07
5.35566e-07
5.34966e-07
5.34794e-07
5.34718e-07
5.34703e-07
5.34741e-07
5.34891e-07
5.3531e-07
5.35515e-07
5.35431e-07
5.35034e-07
5.35474e-07
5.35581e-07
5.29696e-07
5.29612e-07
5.29618e-07
5.29001e-07
5.28968e-07
5.28977e-07
5.28982e-07
5.29492e-07
5.29613e-07
5.29618e-07
5.28926e-07
5.27791e-07
5.27789e-07
5.27789e-07
5.27791e-07
5.28725e-07
5.29012e-07
5.29001e-07
5.27791e-07
5.2779e-07
5.2779e-07
5.2779e-07
5.27791e-07
5.27791e-07
5.28841e-07
5.29561e-07
5.29696e-07
5.28968e-07
5.27789e-07
5.2779e-07
5.2779e-07
5.2779e-07
5.2779e-07
5.27789e-07
5.28765e-07
5.29478e-07
5.29612e-07
5.28977e-07
5.27789e-07
5.2779e-07
5.2779e-07
5.2779e-07
5.2779e-07
5.27789e-07
5.2875e-07
5.29081e-07
5.28982e-07
5.27791e-07
5.2779e-07
5.2779e-07
5.2779e-07
5.2779e-07
5.27791e-07
5.28788e-07
5.29521e-07
5.29492e-07
5.28725e-07
5.27791e-07
5.27789e-07
5.27789e-07
5.27791e-07
5.28517e-07
5.28937e-07
5.29628e-07
5.29613e-07
5.29012e-07
5.28841e-07
5.28765e-07
5.2875e-07
5.28788e-07
5.28937e-07
5.29357e-07
5.29561e-07
5.29478e-07
5.29081e-07
5.29521e-07
5.29628e-07
5.23743e-07
5.23659e-07
5.23664e-07
5.23048e-07
5.23015e-07
5.23023e-07
5.23029e-07
5.23538e-07
5.2366e-07
5.23664e-07
5.22973e-07
5.21838e-07
5.21836e-07
5.21836e-07
5.21838e-07
5.22772e-07
5.23059e-07
5.23048e-07
5.21838e-07
5.21837e-07
5.21837e-07
5.21837e-07
5.21837e-07
5.21838e-07
5.22888e-07
5.23608e-07
5.23743e-07
5.23015e-07
5.21836e-07
5.21837e-07
5.21837e-07
5.21837e-07
5.21837e-07
5.21836e-07
5.22811e-07
5.23524e-07
5.23659e-07
5.23023e-07
5.21836e-07
5.21837e-07
5.21837e-07
5.21837e-07
5.21837e-07
5.21836e-07
5.22797e-07
5.23127e-07
5.23029e-07
5.21838e-07
5.21837e-07
5.21837e-07
5.21837e-07
5.21837e-07
5.21838e-07
5.22835e-07
5.23568e-07
5.23538e-07
5.22772e-07
5.21838e-07
5.21836e-07
5.21836e-07
5.21838e-07
5.22564e-07
5.22984e-07
5.23674e-07
5.2366e-07
5.23059e-07
5.22888e-07
5.22811e-07
5.22797e-07
5.22835e-07
5.22984e-07
5.23404e-07
5.23608e-07
5.23524e-07
5.23127e-07
5.23568e-07
5.23674e-07
5.1779e-07
5.17706e-07
5.17712e-07
5.17095e-07
5.17062e-07
5.17071e-07
5.17076e-07
5.17586e-07
5.17707e-07
5.17712e-07
5.1702e-07
5.15886e-07
5.15884e-07
5.15884e-07
5.15886e-07
5.1682e-07
5.17107e-07
5.17095e-07
5.15886e-07
5.15885e-07
5.15885e-07
5.15885e-07
5.15885e-07
5.15886e-07
5.16935e-07
5.17655e-07
5.1779e-07
5.17062e-07
5.15884e-07
5.15885e-07
5.15885e-07
5.15885e-07
5.15885e-07
5.15884e-07
5.16859e-07
5.17572e-07
5.17706e-07
5.17071e-07
5.15884e-07
5.15885e-07
5.15885e-07
5.15885e-07
5.15885e-07
5.15884e-07
5.16844e-07
5.17175e-07
5.17076e-07
5.15886e-07
5.15885e-07
5.15885e-07
5.15885e-07
5.15885e-07
5.15886e-07
5.16882e-07
5.17616e-07
5.17586e-07
5.1682e-07
5.15886e-07
5.15884e-07
5.15884e-07
5.15886e-07
5.16612e-07
5.17032e-07
5.17722e-07
5.17707e-07
5.17107e-07
5.16935e-07
5.16859e-07
5.16844e-07
5.16882e-07
5.17032e-07
5.17451e-07
5.17656e-07
5.17572e-07
5.17175e-07
5.17616e-07
5.17722e-07
5.11839e-07
5.11754e-07
5.1176e-07
5.11144e-07
5.11111e-07
5.11119e-07
5.11125e-07
5.11634e-07
5.11756e-07
5.1176e-07
5.11069e-07
5.09934e-07
5.09933e-07
5.09933e-07
5.09934e-07
5.10868e-07
5.11155e-07
5.11144e-07
5.09934e-07
5.09934e-07
5.09933e-07
5.09933e-07
5.09934e-07
5.09934e-07
5.10984e-07
5.11704e-07
5.11839e-07
5.11111e-07
5.09933e-07
5.09933e-07
5.09933e-07
5.09933e-07
5.09933e-07
5.09933e-07
5.10907e-07
5.1162e-07
5.11755e-07
5.1112e-07
5.09933e-07
5.09933e-07
5.09933e-07
5.09933e-07
5.09933e-07
5.09933e-07
5.10893e-07
5.11223e-07
5.11125e-07
5.09934e-07
5.09934e-07
5.09933e-07
5.09933e-07
5.09934e-07
5.09934e-07
5.10931e-07
5.11664e-07
5.11634e-07
5.10868e-07
5.09934e-07
5.09933e-07
5.09933e-07
5.09934e-07
5.1066e-07
5.1108e-07
5.1177e-07
5.11756e-07
5.11155e-07
5.10984e-07
5.10908e-07
5.10893e-07
5.10931e-07
5.1108e-07
5.115e-07
5.11704e-07
5.1162e-07
5.11223e-07
5.11664e-07
5.1177e-07
5.05888e-07
5.05804e-07
5.05809e-07
5.05193e-07
5.0516e-07
5.05169e-07
5.05174e-07
5.05683e-07
5.05805e-07
5.05809e-07
5.05118e-07
5.03983e-07
5.03982e-07
5.03982e-07
5.03983e-07
5.04917e-07
5.05204e-07
5.05193e-07
5.03983e-07
5.03983e-07
5.03982e-07
5.03982e-07
5.03983e-07
5.03983e-07
5.05033e-07
5.05753e-07
5.05888e-07
5.0516e-07
5.03982e-07
5.03982e-07
5.03982e-07
5.03982e-07
5.03982e-07
5.03982e-07
5.04957e-07
5.05669e-07
5.05804e-07
5.05169e-07
5.03982e-07
5.03982e-07
5.03982e-07
5.03982e-07
5.03982e-07
5.03982e-07
5.04942e-07
5.05273e-07
5.05174e-07
5.03983e-07
5.03983e-07
5.03982e-07
5.03982e-07
5.03983e-07
5.03983e-07
5.0498e-07
5.05713e-07
5.05683e-07
5.04917e-07
5.03983e-07
5.03982e-07
5.03982e-07
5.03983e-07
5.0471e-07
5.05129e-07
5.05819e-07
5.05805e-07
5.05204e-07
5.05033e-07
5.04957e-07
5.04942e-07
5.0498e-07
5.05129e-07
5.05549e-07
5.05753e-07
5.05669e-07
5.05272e-07
5.05713e-07
5.05819e-07
4.99937e-07
4.99852e-07
4.99858e-07
4.99242e-07
4.99209e-07
4.99218e-07
4.99223e-07
4.99732e-07
4.99854e-07
4.99858e-07
4.99167e-07
4.98032e-07
4.98031e-07
4.98031e-07
4.98032e-07
4.98966e-07
4.99253e-07
4.99242e-07
4.98032e-07
4.98032e-07
4.98031e-07
4.98031e-07
4.98032e-07
4.98032e-07
4.99082e-07
4.99802e-07
4.99937e-07
4.99209e-07
4.98031e-07
4.98031e-07
4.98031e-07
4.98031e-07
4.98031e-07
4.98031e-07
4.99006e-07
4.99718e-07
4.99852e-07
4.99218e-07
4.98031e-07
4.98031e-07
4.98031e-07
4.98031e-07
4.98031e-07
4.98031e-07
4.98991e-07
4.99321e-07
4.99223e-07
4.98032e-07
4.98032e-07
4.98031e-07
4.98031e-07
4.98032e-07
4.98032e-07
4.99029e-07
4.99762e-07
4.99732e-07
4.98966e-07
4.98032e-07
4.98031e-07
4.98031e-07
4.98032e-07
4.98758e-07
4.99178e-07
4.99868e-07
4.99854e-07
4.99253e-07
4.99082e-07
4.99006e-07
4.98991e-07
4.99029e-07
4.99178e-07
4.99598e-07
4.99802e-07
4.99718e-07
4.99321e-07
4.99762e-07
4.99868e-07
4.93986e-07
4.93902e-07
4.93908e-07
4.93291e-07
4.93258e-07
4.93267e-07
4.93272e-07
4.93782e-07
4.93903e-07
4.93908e-07
4.93216e-07
4.92082e-07
4.9208e-07
4.9208e-07
4.92082e-07
4.93016e-07
4.93303e-07
4.93291e-07
4.92082e-07
4.92081e-07
4.92081e-07
4.92081e-07
4.92081e-07
4.92082e-07
4.93131e-07
4.93852e-07
4.93986e-07
4.93258e-07
4.9208e-07
4.92081e-07
4.92081e-07
4.92081e-07
4.92081e-07
4.9208e-07
4.93055e-07
4.93768e-07
4.93902e-07
4.93267e-07
4.9208e-07
4.92081e-07
4.92081e-07
4.92081e-07
4.92081e-07
4.9208e-07
4.9304e-07
4.93371e-07
4.93272e-07
4.92082e-07
4.92081e-07
4.92081e-07
4.92081e-07
4.92081e-07
4.92082e-07
4.93078e-07
4.93812e-07
4.93782e-07
4.93016e-07
4.92082e-07
4.9208e-07
4.9208e-07
4.92082e-07
4.92808e-07
4.93228e-07
4.93918e-07
4.93903e-07
4.93303e-07
4.93131e-07
4.93055e-07
4.9304e-07
4.93078e-07
4.93228e-07
4.93647e-07
4.93852e-07
4.93768e-07
4.93371e-07
4.93812e-07
4.93918e-07
4.88035e-07
4.87951e-07
4.87957e-07
4.8734e-07
4.87308e-07
4.87316e-07
4.87321e-07
4.87831e-07
4.87952e-07
4.87957e-07
4.87265e-07
4.86131e-07
4.86129e-07
4.86129e-07
4.86131e-07
4.87065e-07
4.87352e-07
4.8734e-07
4.86131e-07
4.8613e-07
4.8613e-07
4.8613e-07
4.8613e-07
4.86131e-07
4.8718e-07
4.87901e-07
4.88035e-07
4.87308e-07
4.86129e-07
4.8613e-07
4.8613e-07
4.8613e-07
4.8613e-07
4.86129e-07
4.87104e-07
4.87817e-07
4.87951e-07
4.87316e-07
4.86129e-07
4.8613e-07
4.8613e-07
4.8613e-07
4.8613e-07
4.86129e-07
4.87089e-07
4.8742e-07
4.87321e-07
4.86131e-07
4.8613e-07
4.8613e-07
4.8613e-07
4.8613e-07
4.86131e-07
4.87127e-07
4.87861e-07
4.87831e-07
4.87065e-07
4.86131e-07
4.86129e-07
4.86129e-07
4.86131e-07
4.86857e-07
4.87277e-07
4.87967e-07
4.87952e-07
4.87352e-07
4.8718e-07
4.87104e-07
4.87089e-07
4.87127e-07
4.87277e-07
4.87696e-07
4.87901e-07
4.87817e-07
4.8742e-07
4.8786e-07
4.87967e-07
4.82084e-07
4.82e-07
4.82006e-07
4.81389e-07
4.81357e-07
4.81365e-07
4.8137e-07
4.8188e-07
4.82002e-07
4.82006e-07
4.81314e-07
4.8018e-07
4.80178e-07
4.80178e-07
4.8018e-07
4.81114e-07
4.81401e-07
4.81389e-07
4.8018e-07
4.80179e-07
4.80179e-07
4.80179e-07
4.80179e-07
4.8018e-07
4.81229e-07
4.8195e-07
4.82084e-07
4.81357e-07
4.80178e-07
4.80179e-07
4.80179e-07
4.80179e-07
4.80179e-07
4.80178e-07
4.81153e-07
4.81866e-07
4.82e-07
4.81365e-07
4.80178e-07
4.80179e-07
4.80179e-07
4.80179e-07
4.80179e-07
4.80178e-07
4.81138e-07
4.81469e-07
4.8137e-07
4.8018e-07
4.80179e-07
4.80179e-07
4.80179e-07
4.80179e-07
4.8018e-07
4.81176e-07
4.8191e-07
4.8188e-07
4.81114e-07
4.8018e-07
4.80178e-07
4.80178e-07
4.8018e-07
4.80906e-07
4.81326e-07
4.82016e-07
4.82002e-07
4.81401e-07
4.81229e-07
4.81153e-07
4.81138e-07
4.81176e-07
4.81326e-07
4.81746e-07
4.8195e-07
4.81866e-07
4.81469e-07
4.8191e-07
4.82016e-07
4.76133e-07
4.76049e-07
4.76055e-07
4.75438e-07
4.75405e-07
4.75414e-07
4.75419e-07
4.75929e-07
4.7605e-07
4.76055e-07
4.75363e-07
4.74228e-07
4.74226e-07
4.74226e-07
4.74228e-07
4.75162e-07
4.75449e-07
4.75438e-07
4.74228e-07
4.74228e-07
4.74227e-07
4.74227e-07
4.74228e-07
4.74228e-07
4.75278e-07
4.75998e-07
4.76133e-07
4.75405e-07
4.74226e-07
4.74227e-07
4.74227e-07
4.74227e-07
4.74227e-07
4.74226e-07
4.75202e-07
4.75915e-07
4.76049e-07
4.75414e-07
4.74226e-07
4.74227e-07
4.74227e-07
4.74227e-07
4.74227e-07
4.74226e-07
4.75187e-07
4.75518e-07
4.75419e-07
4.74228e-07
4.74228e-07
4.74227e-07
4.74227e-07
4.74227e-07
4.74228e-07
4.75225e-07
4.75958e-07
4.75929e-07
4.75162e-07
4.74228e-07
4.74226e-07
4.74226e-07
4.74228e-07
4.74954e-07
4.75374e-07
4.76065e-07
4.7605e-07
4.75449e-07
4.75278e-07
4.75202e-07
4.75187e-07
4.75225e-07
4.75374e-07
4.75794e-07
4.75998e-07
4.75915e-07
4.75518e-07
4.75958e-07
4.76064e-07
4.70181e-07
4.70097e-07
4.70103e-07
4.69486e-07
4.69453e-07
4.69461e-07
4.69467e-07
4.69977e-07
4.70098e-07
4.70103e-07
4.69411e-07
4.68276e-07
4.68274e-07
4.68274e-07
4.68276e-07
4.6921e-07
4.69497e-07
4.69486e-07
4.68276e-07
4.68275e-07
4.68275e-07
4.68275e-07
4.68275e-07
4.68276e-07
4.69325e-07
4.70046e-07
4.70181e-07
4.69453e-07
4.68274e-07
4.68275e-07
4.68275e-07
4.68275e-07
4.68275e-07
4.68274e-07
4.69249e-07
4.69962e-07
4.70097e-07
4.69461e-07
4.68274e-07
4.68275e-07
4.68275e-07
4.68274e-07
4.68275e-07
4.68274e-07
4.69234e-07
4.69565e-07
4.69467e-07
4.68276e-07
4.68275e-07
4.68275e-07
4.68275e-07
4.68275e-07
4.68276e-07
4.69273e-07
4.70006e-07
4.69977e-07
4.6921e-07
4.68276e-07
4.68274e-07
4.68274e-07
4.68276e-07
4.69002e-07
4.69422e-07
4.70112e-07
4.70098e-07
4.69497e-07
4.69326e-07
4.69249e-07
4.69235e-07
4.69273e-07
4.69422e-07
4.69842e-07
4.70046e-07
4.69962e-07
4.69565e-07
4.70006e-07
4.70112e-07
4.64228e-07
4.64143e-07
4.64149e-07
4.63532e-07
4.635e-07
4.63508e-07
4.63514e-07
4.64023e-07
4.64145e-07
4.64149e-07
4.63458e-07
4.62323e-07
4.62321e-07
4.62321e-07
4.62323e-07
4.63257e-07
4.63544e-07
4.63532e-07
4.62323e-07
4.62323e-07
4.62322e-07
4.62322e-07
4.62322e-07
4.62323e-07
4.63372e-07
4.64093e-07
4.64228e-07
4.635e-07
4.62321e-07
4.62322e-07
4.62322e-07
4.62322e-07
4.62322e-07
4.62321e-07
4.63296e-07
4.64009e-07
4.64144e-07
4.63508e-07
4.62321e-07
4.62322e-07
4.62322e-07
4.62322e-07
4.62322e-07
4.62321e-07
4.63282e-07
4.63612e-07
4.63514e-07
4.62323e-07
4.62323e-07
4.62322e-07
4.62322e-07
4.62322e-07
4.62323e-07
4.6332e-07
4.64053e-07
4.64023e-07
4.63257e-07
4.62323e-07
4.62321e-07
4.62321e-07
4.62323e-07
4.63049e-07
4.63469e-07
4.64159e-07
4.64145e-07
4.63544e-07
4.63373e-07
4.63296e-07
4.63282e-07
4.6332e-07
4.63469e-07
4.63889e-07
4.64093e-07
4.64009e-07
4.63612e-07
4.64053e-07
4.64159e-07
4.58276e-07
4.58192e-07
4.58198e-07
4.57581e-07
4.57548e-07
4.57557e-07
4.57562e-07
4.58072e-07
4.58194e-07
4.58198e-07
4.57506e-07
4.56372e-07
4.5637e-07
4.5637e-07
4.56372e-07
4.57306e-07
4.57593e-07
4.57581e-07
4.56372e-07
4.56371e-07
4.5637e-07
4.5637e-07
4.56371e-07
4.56372e-07
4.57421e-07
4.58141e-07
4.58276e-07
4.57548e-07
4.5637e-07
4.5637e-07
4.5637e-07
4.5637e-07
4.5637e-07
4.5637e-07
4.57345e-07
4.58058e-07
4.58192e-07
4.57557e-07
4.5637e-07
4.5637e-07
4.5637e-07
4.5637e-07
4.5637e-07
4.5637e-07
4.5733e-07
4.57661e-07
4.57562e-07
4.56372e-07
4.56371e-07
4.5637e-07
4.5637e-07
4.56371e-07
4.56372e-07
4.57368e-07
4.58101e-07
4.58072e-07
4.57305e-07
4.56372e-07
4.5637e-07
4.5637e-07
4.56372e-07
4.57098e-07
4.57518e-07
4.58208e-07
4.58193e-07
4.57593e-07
4.57421e-07
4.57345e-07
4.5733e-07
4.57368e-07
4.57518e-07
4.57937e-07
4.58141e-07
4.58058e-07
4.57661e-07
4.58101e-07
4.58208e-07
4.52325e-07
4.5224e-07
4.52246e-07
4.51629e-07
4.51597e-07
4.51605e-07
4.51611e-07
4.5212e-07
4.52242e-07
4.52246e-07
4.51554e-07
4.5042e-07
4.50418e-07
4.50418e-07
4.5042e-07
4.51354e-07
4.51641e-07
4.51629e-07
4.5042e-07
4.50419e-07
4.50419e-07
4.50419e-07
4.50419e-07
4.5042e-07
4.51469e-07
4.5219e-07
4.52325e-07
4.51597e-07
4.50418e-07
4.50419e-07
4.50419e-07
4.50419e-07
4.50419e-07
4.50418e-07
4.51393e-07
4.52106e-07
4.5224e-07
4.51605e-07
4.50418e-07
4.50419e-07
4.50419e-07
4.50419e-07
4.50419e-07
4.50418e-07
4.51379e-07
4.51709e-07
4.51611e-07
4.5042e-07
4.50419e-07
4.50419e-07
4.50419e-07
4.50419e-07
4.5042e-07
4.51417e-07
4.5215e-07
4.5212e-07
4.51354e-07
4.5042e-07
4.50418e-07
4.50418e-07
4.5042e-07
4.51146e-07
4.51566e-07
4.52256e-07
4.52242e-07
4.51641e-07
4.51469e-07
4.51393e-07
4.51379e-07
4.51417e-07
4.51566e-07
4.51986e-07
4.5219e-07
4.52106e-07
4.51709e-07
4.5215e-07
4.52256e-07
4.46373e-07
4.46289e-07
4.46295e-07
4.45678e-07
4.45646e-07
4.45654e-07
4.45659e-07
4.46169e-07
4.46291e-07
4.46295e-07
4.45603e-07
4.44469e-07
4.44467e-07
4.44467e-07
4.44469e-07
4.45403e-07
4.4569e-07
4.45678e-07
4.44469e-07
4.44468e-07
4.44468e-07
4.44468e-07
4.44468e-07
4.44469e-07
4.45518e-07
4.46239e-07
4.46373e-07
4.45646e-07
4.44467e-07
4.44468e-07
4.44468e-07
4.44468e-07
4.44468e-07
4.44467e-07
4.45442e-07
4.46155e-07
4.46289e-07
4.45654e-07
4.44467e-07
4.44468e-07
4.44468e-07
4.44468e-07
4.44468e-07
4.44467e-07
4.45427e-07
4.45758e-07
4.45659e-07
4.44469e-07
4.44468e-07
4.44468e-07
4.44468e-07
4.44468e-07
4.44469e-07
4.45465e-07
4.46199e-07
4.46169e-07
4.45403e-07
4.44469e-07
4.44467e-07
4.44467e-07
4.44469e-07
4.45195e-07
4.45615e-07
4.46305e-07
4.46291e-07
4.4569e-07
4.45518e-07
4.45442e-07
4.45427e-07
4.45465e-07
4.45615e-07
4.46034e-07
4.46239e-07
4.46155e-07
4.45758e-07
4.46199e-07
4.46305e-07
4.40422e-07
4.40338e-07
4.40344e-07
4.39727e-07
4.39694e-07
4.39703e-07
4.39708e-07
4.40218e-07
4.40339e-07
4.40344e-07
4.39652e-07
4.38517e-07
4.38516e-07
4.38516e-07
4.38517e-07
4.39451e-07
4.39738e-07
4.39727e-07
4.38517e-07
4.38517e-07
4.38516e-07
4.38516e-07
4.38517e-07
4.38517e-07
4.39567e-07
4.40287e-07
4.40422e-07
4.39694e-07
4.38516e-07
4.38516e-07
4.38516e-07
4.38516e-07
4.38516e-07
4.38516e-07
4.39491e-07
4.40203e-07
4.40338e-07
4.39703e-07
4.38516e-07
4.38516e-07
4.38516e-07
4.38516e-07
4.38516e-07
4.38516e-07
4.39476e-07
4.39807e-07
4.39708e-07
4.38517e-07
4.38517e-07
4.38516e-07
4.38516e-07
4.38517e-07
4.38517e-07
4.39514e-07
4.40247e-07
4.40218e-07
4.39451e-07
4.38517e-07
4.38516e-07
4.38516e-07
4.38517e-07
4.39243e-07
4.39663e-07
4.40353e-07
4.40339e-07
4.39738e-07
4.39567e-07
4.39491e-07
4.39476e-07
4.39514e-07
4.39663e-07
4.40083e-07
4.40287e-07
4.40204e-07
4.39806e-07
4.40247e-07
4.40353e-07
4.34471e-07
4.34387e-07
4.34392e-07
4.33776e-07
4.33743e-07
4.33752e-07
4.33757e-07
4.34267e-07
4.34388e-07
4.34392e-07
4.33701e-07
4.32567e-07
4.32565e-07
4.32565e-07
4.32567e-07
4.335e-07
4.33787e-07
4.33776e-07
4.32567e-07
4.32566e-07
4.32565e-07
4.32565e-07
4.32566e-07
4.32567e-07
4.33616e-07
4.34336e-07
4.34471e-07
4.33743e-07
4.32565e-07
4.32565e-07
4.32565e-07
4.32565e-07
4.32565e-07
4.32565e-07
4.3354e-07
4.34252e-07
4.34387e-07
4.33752e-07
4.32565e-07
4.32565e-07
4.32565e-07
4.32565e-07
4.32565e-07
4.32565e-07
4.33525e-07
4.33856e-07
4.33757e-07
4.32567e-07
4.32566e-07
4.32565e-07
4.32565e-07
4.32566e-07
4.32566e-07
4.33563e-07
4.34296e-07
4.34267e-07
4.335e-07
4.32567e-07
4.32565e-07
4.32565e-07
4.32566e-07
4.33293e-07
4.33712e-07
4.34402e-07
4.34388e-07
4.33787e-07
4.33616e-07
4.3354e-07
4.33525e-07
4.33563e-07
4.33712e-07
4.34132e-07
4.34336e-07
4.34252e-07
4.33856e-07
4.34296e-07
4.34402e-07
4.2852e-07
4.28436e-07
4.28442e-07
4.27825e-07
4.27792e-07
4.27801e-07
4.27806e-07
4.28316e-07
4.28437e-07
4.28442e-07
4.2775e-07
4.26616e-07
4.26614e-07
4.26614e-07
4.26616e-07
4.2755e-07
4.27837e-07
4.27825e-07
4.26616e-07
4.26615e-07
4.26615e-07
4.26615e-07
4.26615e-07
4.26616e-07
4.27665e-07
4.28386e-07
4.2852e-07
4.27792e-07
4.26614e-07
4.26615e-07
4.26615e-07
4.26615e-07
4.26615e-07
4.26614e-07
4.27589e-07
4.28302e-07
4.28436e-07
4.27801e-07
4.26614e-07
4.26615e-07
4.26615e-07
4.26615e-07
4.26615e-07
4.26614e-07
4.27574e-07
4.27905e-07
4.27806e-07
4.26616e-07
4.26615e-07
4.26615e-07
4.26615e-07
4.26615e-07
4.26616e-07
4.27612e-07
4.28345e-07
4.28316e-07
4.2755e-07
4.26616e-07
4.26614e-07
4.26614e-07
4.26616e-07
4.27342e-07
4.27762e-07
4.28452e-07
4.28437e-07
4.27837e-07
4.27665e-07
4.27589e-07
4.27574e-07
4.27612e-07
4.27762e-07
4.28181e-07
4.28385e-07
4.28302e-07
4.27905e-07
4.28345e-07
4.28452e-07
4.2257e-07
4.22486e-07
4.22492e-07
4.21875e-07
4.21842e-07
4.21851e-07
4.21856e-07
4.22366e-07
4.22487e-07
4.22492e-07
4.218e-07
4.20665e-07
4.20663e-07
4.20663e-07
4.20665e-07
4.21599e-07
4.21886e-07
4.21875e-07
4.20665e-07
4.20664e-07
4.20664e-07
4.20664e-07
4.20664e-07
4.20665e-07
4.21715e-07
4.22435e-07
4.2257e-07
4.21842e-07
4.20663e-07
4.20664e-07
4.20664e-07
4.20664e-07
4.20664e-07
4.20663e-07
4.21639e-07
4.22352e-07
4.22486e-07
4.21851e-07
4.20663e-07
4.20664e-07
4.20664e-07
4.20664e-07
4.20664e-07
4.20663e-07
4.21624e-07
4.21955e-07
4.21856e-07
4.20665e-07
4.20664e-07
4.20664e-07
4.20664e-07
4.20664e-07
4.20665e-07
4.21662e-07
4.22395e-07
4.22366e-07
4.21599e-07
4.20665e-07
4.20663e-07
4.20663e-07
4.20665e-07
4.21391e-07
4.21811e-07
4.22501e-07
4.22487e-07
4.21886e-07
4.21715e-07
4.21639e-07
4.21624e-07
4.21662e-07
4.21811e-07
4.22231e-07
4.22435e-07
4.22351e-07
4.21955e-07
4.22395e-07
4.22502e-07
4.16618e-07
4.16533e-07
4.16539e-07
4.15922e-07
4.1589e-07
4.15898e-07
4.15904e-07
4.16413e-07
4.16535e-07
4.16539e-07
4.15848e-07
4.14713e-07
4.14711e-07
4.14711e-07
4.14713e-07
4.15647e-07
4.15934e-07
4.15922e-07
4.14713e-07
4.14712e-07
4.14712e-07
4.14712e-07
4.14712e-07
4.14713e-07
4.15762e-07
4.16483e-07
4.16618e-07
4.1589e-07
4.14711e-07
4.14712e-07
4.14712e-07
4.14712e-07
4.14712e-07
4.14711e-07
4.15686e-07
4.16399e-07
4.16533e-07
4.15898e-07
4.14711e-07
4.14712e-07
4.14712e-07
4.14712e-07
4.14712e-07
4.14711e-07
4.15672e-07
4.16002e-07
4.15904e-07
4.14713e-07
4.14712e-07
4.14712e-07
4.14712e-07
4.14712e-07
4.14713e-07
4.1571e-07
4.16443e-07
4.16413e-07
4.15647e-07
4.14713e-07
4.14711e-07
4.14711e-07
4.14713e-07
4.15439e-07
4.15859e-07
4.16549e-07
4.16535e-07
4.15934e-07
4.15762e-07
4.15686e-07
4.15672e-07
4.1571e-07
4.15859e-07
4.16279e-07
4.16483e-07
4.16399e-07
4.16002e-07
4.16443e-07
4.16549e-07
4.10666e-07
4.10582e-07
4.10587e-07
4.09971e-07
4.09938e-07
4.09946e-07
4.09952e-07
4.10462e-07
4.10583e-07
4.10588e-07
4.09896e-07
4.08761e-07
4.08759e-07
4.08759e-07
4.08761e-07
4.09695e-07
4.09982e-07
4.09971e-07
4.08761e-07
4.0876e-07
4.0876e-07
4.0876e-07
4.0876e-07
4.08761e-07
4.09811e-07
4.10531e-07
4.10666e-07
4.09938e-07
4.08759e-07
4.0876e-07
4.0876e-07
4.0876e-07
4.0876e-07
4.08759e-07
4.09734e-07
4.10447e-07
4.10582e-07
4.09946e-07
4.08759e-07
4.0876e-07
4.0876e-07
4.0876e-07
4.0876e-07
4.08759e-07
4.0972e-07
4.1005e-07
4.09952e-07
4.08761e-07
4.0876e-07
4.0876e-07
4.0876e-07
4.0876e-07
4.08761e-07
4.09758e-07
4.10491e-07
4.10462e-07
4.09695e-07
4.08761e-07
4.08759e-07
4.08759e-07
4.08761e-07
4.09487e-07
4.09907e-07
4.10598e-07
4.10583e-07
4.09982e-07
4.09811e-07
4.09734e-07
4.0972e-07
4.09758e-07
4.09907e-07
4.10327e-07
4.10531e-07
4.10448e-07
4.10051e-07
4.10491e-07
4.10598e-07
4.04713e-07
4.04629e-07
4.04635e-07
4.04018e-07
4.03985e-07
4.03994e-07
4.03999e-07
4.04509e-07
4.04631e-07
4.04635e-07
4.03943e-07
4.02808e-07
4.02807e-07
4.02807e-07
4.02808e-07
4.03742e-07
4.04029e-07
4.04018e-07
4.02808e-07
4.02808e-07
4.02807e-07
4.02807e-07
4.02808e-07
4.02808e-07
4.03858e-07
4.04579e-07
4.04713e-07
4.03985e-07
4.02807e-07
4.02807e-07
4.02807e-07
4.02807e-07
4.02807e-07
4.02807e-07
4.03782e-07
4.04495e-07
4.04629e-07
4.03994e-07
4.02807e-07
4.02807e-07
4.02807e-07
4.02807e-07
4.02807e-07
4.02807e-07
4.03767e-07
4.04098e-07
4.03999e-07
4.02808e-07
4.02808e-07
4.02807e-07
4.02807e-07
4.02808e-07
4.02808e-07
4.03805e-07
4.04539e-07
4.04509e-07
4.03742e-07
4.02808e-07
4.02807e-07
4.02807e-07
4.02808e-07
4.03535e-07
4.03955e-07
4.04645e-07
4.04631e-07
4.04029e-07
4.03858e-07
4.03782e-07
4.03767e-07
4.03805e-07
4.03955e-07
4.04374e-07
4.04578e-07
4.04495e-07
4.04098e-07
4.04538e-07
4.04645e-07
3.98761e-07
3.98677e-07
3.98683e-07
3.98066e-07
3.98033e-07
3.98042e-07
3.98047e-07
3.98557e-07
3.98678e-07
3.98682e-07
3.97991e-07
3.96856e-07
3.96855e-07
3.96855e-07
3.96856e-07
3.9779e-07
3.98077e-07
3.98066e-07
3.96856e-07
3.96856e-07
3.96855e-07
3.96855e-07
3.96856e-07
3.96856e-07
3.97906e-07
3.98626e-07
3.98761e-07
3.98033e-07
3.96855e-07
3.96855e-07
3.96855e-07
3.96855e-07
3.96855e-07
3.96855e-07
3.9783e-07
3.98542e-07
3.98677e-07
3.98042e-07
3.96855e-07
3.96855e-07
3.96855e-07
3.96855e-07
3.96855e-07
3.96855e-07
3.97815e-07
3.98146e-07
3.98047e-07
3.96856e-07
3.96856e-07
3.96855e-07
3.96855e-07
3.96856e-07
3.96856e-07
3.97853e-07
3.98586e-07
3.98557e-07
3.9779e-07
3.96856e-07
3.96855e-07
3.96855e-07
3.96856e-07
3.97582e-07
3.98002e-07
3.98692e-07
3.98678e-07
3.98077e-07
3.97906e-07
3.9783e-07
3.97815e-07
3.97853e-07
3.98002e-07
3.98422e-07
3.98626e-07
3.98542e-07
3.98146e-07
3.98586e-07
3.98692e-07
3.92809e-07
3.92725e-07
3.92731e-07
3.92114e-07
3.92081e-07
3.92089e-07
3.92095e-07
3.92605e-07
3.92726e-07
3.92731e-07
3.92039e-07
3.90904e-07
3.90902e-07
3.90902e-07
3.90904e-07
3.91838e-07
3.92125e-07
3.92114e-07
3.90904e-07
3.90903e-07
3.90903e-07
3.90903e-07
3.90903e-07
3.90904e-07
3.91954e-07
3.92674e-07
3.92809e-07
3.92081e-07
3.90902e-07
3.90903e-07
3.90903e-07
3.90903e-07
3.90903e-07
3.90902e-07
3.91877e-07
3.9259e-07
3.92725e-07
3.92089e-07
3.90902e-07
3.90903e-07
3.90903e-07
3.90903e-07
3.90903e-07
3.90902e-07
3.91863e-07
3.92193e-07
3.92095e-07
3.90904e-07
3.90903e-07
3.90903e-07
3.90903e-07
3.90903e-07
3.90904e-07
3.91901e-07
3.92634e-07
3.92605e-07
3.91838e-07
3.90904e-07
3.90902e-07
3.90902e-07
3.90904e-07
3.9163e-07
3.9205e-07
3.92741e-07
3.92726e-07
3.92125e-07
3.91954e-07
3.91877e-07
3.91863e-07
3.91901e-07
3.9205e-07
3.9247e-07
3.92674e-07
3.92591e-07
3.92193e-07
3.92634e-07
3.92741e-07
3.86856e-07
3.86772e-07
3.86778e-07
3.86161e-07
3.86128e-07
3.86137e-07
3.86142e-07
3.86652e-07
3.86773e-07
3.86778e-07
3.86086e-07
3.84951e-07
3.8495e-07
3.8495e-07
3.84951e-07
3.85885e-07
3.86172e-07
3.86161e-07
3.84951e-07
3.84951e-07
3.8495e-07
3.8495e-07
3.84951e-07
3.84951e-07
3.86001e-07
3.86722e-07
3.86856e-07
3.86128e-07
3.8495e-07
3.8495e-07
3.8495e-07
3.8495e-07
3.8495e-07
3.8495e-07
3.85925e-07
3.86638e-07
3.86772e-07
3.86137e-07
3.8495e-07
3.8495e-07
3.8495e-07
3.8495e-07
3.8495e-07
3.8495e-07
3.8591e-07
3.86241e-07
3.86142e-07
3.84951e-07
3.84951e-07
3.8495e-07
3.8495e-07
3.84951e-07
3.84951e-07
3.85948e-07
3.86681e-07
3.86652e-07
3.85885e-07
3.84951e-07
3.8495e-07
3.8495e-07
3.84951e-07
3.85677e-07
3.86098e-07
3.86788e-07
3.86774e-07
3.86172e-07
3.86001e-07
3.85925e-07
3.8591e-07
3.85948e-07
3.86098e-07
3.86517e-07
3.86721e-07
3.86638e-07
3.86241e-07
3.86681e-07
3.86788e-07
3.80904e-07
3.80819e-07
3.80825e-07
3.80208e-07
3.80176e-07
3.80184e-07
3.8019e-07
3.80699e-07
3.80821e-07
3.80825e-07
3.80134e-07
3.78999e-07
3.78997e-07
3.78997e-07
3.78999e-07
3.79933e-07
3.8022e-07
3.80208e-07
3.78999e-07
3.78999e-07
3.78998e-07
3.78998e-07
3.78998e-07
3.78999e-07
3.80048e-07
3.80769e-07
3.80904e-07
3.80176e-07
3.78997e-07
3.78998e-07
3.78998e-07
3.78998e-07
3.78998e-07
3.78997e-07
3.79972e-07
3.80685e-07
3.80819e-07
3.80184e-07
3.78997e-07
3.78998e-07
3.78998e-07
3.78998e-07
3.78998e-07
3.78997e-07
3.79957e-07
3.80288e-07
3.8019e-07
3.78999e-07
3.78998e-07
3.78998e-07
3.78998e-07
3.78998e-07
3.78999e-07
3.79996e-07
3.80729e-07
3.80699e-07
3.79933e-07
3.78999e-07
3.78997e-07
3.78997e-07
3.78999e-07
3.79725e-07
3.80145e-07
3.80835e-07
3.80821e-07
3.8022e-07
3.80048e-07
3.79972e-07