/*--------------------------------*- C++ -*----------------------------------*\
| =========                 |                                                 |
| \\      /  F ield         | OpenFOAM: The Open Source CFD Toolbox           |
|  \\    /   O peration     | Version:  v2012                                 |
|   \\  /    A nd           | Website:  www.openfoam.com                      |
|    \\/     M anipulation  |                                                 |
\*---------------------------------------------------------------------------*/
FoamFile
{
    version     2.0;
    format      ascii;
    class       volScalarField;
    location    "12";
    object      p;
}
// * * * * * * * * * * * * * * * * * * * * * * * * * * * * * * * * * * * * * //

dimensions      [0 2 -2 0 0 0 0];


internalField   nonuniform List<scalar> 
244288
(
1.5233e-06
1.52349e-06
1.52345e-06
1.52333e-06
1.52327e-06
1.52335e-06
1.52346e-06
1.52349e-06
1.52352e-06
1.52329e-06
1.52302e-06
1.52292e-06
1.52304e-06
1.52332e-06
1.52353e-06
1.52345e-06
1.52329e-06
1.52286e-06
1.5225e-06
1.52238e-06
1.52254e-06
1.52292e-06
1.52333e-06
1.52344e-06
1.52333e-06
1.52302e-06
1.5225e-06
1.5221e-06
1.52197e-06
1.52214e-06
1.52257e-06
1.52307e-06
1.52334e-06
1.5233e-06
1.52327e-06
1.52292e-06
1.52238e-06
1.52197e-06
1.52183e-06
1.522e-06
1.52244e-06
1.52298e-06
1.52329e-06
1.52335e-06
1.52304e-06
1.52254e-06
1.52214e-06
1.522e-06
1.52218e-06
1.5226e-06
1.5231e-06
1.52336e-06
1.52346e-06
1.52332e-06
1.52292e-06
1.52257e-06
1.52244e-06
1.5226e-06
1.52297e-06
1.52336e-06
1.52345e-06
1.52353e-06
1.52333e-06
1.52307e-06
1.52298e-06
1.5231e-06
1.52336e-06
1.52353e-06
1.52344e-06
1.52334e-06
1.52329e-06
1.52336e-06
1.52345e-06
1.49988e-06
1.49946e-06
1.49925e-06
1.49782e-06
1.49774e-06
1.49774e-06
1.49776e-06
1.49919e-06
1.49931e-06
1.49925e-06
1.49739e-06
1.49489e-06
1.49489e-06
1.49489e-06
1.49489e-06
1.49741e-06
1.49789e-06
1.49783e-06
1.49489e-06
1.49484e-06
1.49487e-06
1.49487e-06
1.49484e-06
1.49489e-06
1.49779e-06
1.49945e-06
1.49987e-06
1.49774e-06
1.49489e-06
1.49487e-06
1.49492e-06
1.49492e-06
1.49487e-06
1.49489e-06
1.49771e-06
1.49917e-06
1.49945e-06
1.49774e-06
1.49489e-06
1.49487e-06
1.49492e-06
1.49492e-06
1.49487e-06
1.49489e-06
1.49767e-06
1.49804e-06
1.49776e-06
1.49489e-06
1.49484e-06
1.49487e-06
1.49487e-06
1.49484e-06
1.49489e-06
1.49774e-06
1.49932e-06
1.49919e-06
1.49741e-06
1.49489e-06
1.49489e-06
1.49489e-06
1.49489e-06
1.49731e-06
1.4979e-06
1.49947e-06
1.49931e-06
1.49789e-06
1.49779e-06
1.49771e-06
1.49767e-06
1.49774e-06
1.4979e-06
1.49921e-06
1.49945e-06
1.49917e-06
1.49805e-06
1.49932e-06
1.49947e-06
1.48385e-06
1.48371e-06
1.48363e-06
1.48206e-06
1.48197e-06
1.48195e-06
1.48202e-06
1.48352e-06
1.48373e-06
1.48363e-06
1.48162e-06
1.47894e-06
1.47894e-06
1.47894e-06
1.47894e-06
1.48164e-06
1.48223e-06
1.48206e-06
1.47894e-06
1.47891e-06
1.47892e-06
1.47892e-06
1.47891e-06
1.47894e-06
1.48209e-06
1.48378e-06
1.48384e-06
1.48198e-06
1.47894e-06
1.47892e-06
1.47892e-06
1.47892e-06
1.47892e-06
1.47894e-06
1.48201e-06
1.48351e-06
1.48371e-06
1.48195e-06
1.47894e-06
1.47892e-06
1.47892e-06
1.47892e-06
1.47892e-06
1.47894e-06
1.48197e-06
1.48232e-06
1.48202e-06
1.47894e-06
1.47891e-06
1.47892e-06
1.47892e-06
1.47891e-06
1.47894e-06
1.48205e-06
1.48367e-06
1.48352e-06
1.48164e-06
1.47894e-06
1.47894e-06
1.47894e-06
1.47894e-06
1.4816e-06
1.48219e-06
1.48381e-06
1.48373e-06
1.48223e-06
1.48209e-06
1.48201e-06
1.48197e-06
1.48205e-06
1.48219e-06
1.48356e-06
1.48378e-06
1.48351e-06
1.48232e-06
1.48368e-06
1.48381e-06
1.46796e-06
1.46783e-06
1.46773e-06
1.46615e-06
1.46606e-06
1.46602e-06
1.46611e-06
1.46763e-06
1.46783e-06
1.46773e-06
1.46569e-06
1.463e-06
1.463e-06
1.463e-06
1.463e-06
1.46571e-06
1.46633e-06
1.46615e-06
1.463e-06
1.463e-06
1.463e-06
1.463e-06
1.463e-06
1.463e-06
1.4662e-06
1.46789e-06
1.46796e-06
1.46606e-06
1.463e-06
1.463e-06
1.463e-06
1.463e-06
1.463e-06
1.463e-06
1.46613e-06
1.46763e-06
1.46783e-06
1.46602e-06
1.463e-06
1.463e-06
1.463e-06
1.463e-06
1.463e-06
1.463e-06
1.4661e-06
1.46644e-06
1.46611e-06
1.463e-06
1.463e-06
1.463e-06
1.463e-06
1.463e-06
1.463e-06
1.46617e-06
1.46779e-06
1.46763e-06
1.46571e-06
1.463e-06
1.463e-06
1.463e-06
1.463e-06
1.46573e-06
1.4663e-06
1.46792e-06
1.46783e-06
1.46633e-06
1.4662e-06
1.46613e-06
1.4661e-06
1.46617e-06
1.4663e-06
1.46769e-06
1.46789e-06
1.46763e-06
1.46644e-06
1.46779e-06
1.46792e-06
1.45205e-06
1.45191e-06
1.45181e-06
1.45023e-06
1.45014e-06
1.4501e-06
1.45019e-06
1.45171e-06
1.45191e-06
1.45181e-06
1.44976e-06
1.44708e-06
1.44708e-06
1.44708e-06
1.44708e-06
1.44979e-06
1.45041e-06
1.45023e-06
1.44708e-06
1.44708e-06
1.44708e-06
1.44708e-06
1.44708e-06
1.44708e-06
1.45029e-06
1.45197e-06
1.45205e-06
1.45014e-06
1.44708e-06
1.44708e-06
1.44708e-06
1.44708e-06
1.44708e-06
1.44708e-06
1.45022e-06
1.45172e-06
1.45191e-06
1.4501e-06
1.44708e-06
1.44708e-06
1.44708e-06
1.44708e-06
1.44708e-06
1.44708e-06
1.45019e-06
1.45053e-06
1.45019e-06
1.44708e-06
1.44708e-06
1.44708e-06
1.44708e-06
1.44708e-06
1.44708e-06
1.45026e-06
1.45188e-06
1.45171e-06
1.44979e-06
1.44708e-06
1.44708e-06
1.44708e-06
1.44708e-06
1.44981e-06
1.45039e-06
1.452e-06
1.45191e-06
1.45041e-06
1.45029e-06
1.45022e-06
1.45019e-06
1.45026e-06
1.45039e-06
1.45178e-06
1.45197e-06
1.45172e-06
1.45053e-06
1.45188e-06
1.452e-06
1.43613e-06
1.43599e-06
1.43589e-06
1.43431e-06
1.43421e-06
1.43417e-06
1.43427e-06
1.43579e-06
1.43599e-06
1.43589e-06
1.43384e-06
1.43115e-06
1.43115e-06
1.43115e-06
1.43115e-06
1.43387e-06
1.43449e-06
1.43431e-06
1.43115e-06
1.43115e-06
1.43115e-06
1.43115e-06
1.43115e-06
1.43115e-06
1.43437e-06
1.43605e-06
1.43613e-06
1.43421e-06
1.43115e-06
1.43115e-06
1.43115e-06
1.43115e-06
1.43115e-06
1.43115e-06
1.4343e-06
1.4358e-06
1.436e-06
1.43417e-06
1.43115e-06
1.43115e-06
1.43115e-06
1.43115e-06
1.43115e-06
1.43115e-06
1.43427e-06
1.43461e-06
1.43427e-06
1.43115e-06
1.43115e-06
1.43115e-06
1.43115e-06
1.43115e-06
1.43115e-06
1.43434e-06
1.43596e-06
1.43579e-06
1.43387e-06
1.43115e-06
1.43115e-06
1.43115e-06
1.43115e-06
1.4339e-06
1.43447e-06
1.43608e-06
1.43599e-06
1.43449e-06
1.43437e-06
1.4343e-06
1.43427e-06
1.43434e-06
1.43447e-06
1.43586e-06
1.43605e-06
1.4358e-06
1.43461e-06
1.43596e-06
1.43608e-06
1.42021e-06
1.42007e-06
1.41997e-06
1.41838e-06
1.41829e-06
1.41825e-06
1.41835e-06
1.41987e-06
1.42007e-06
1.41997e-06
1.41792e-06
1.41523e-06
1.41523e-06
1.41523e-06
1.41523e-06
1.41794e-06
1.41857e-06
1.41838e-06
1.41523e-06
1.41523e-06
1.41523e-06
1.41523e-06
1.41523e-06
1.41523e-06
1.41845e-06
1.42013e-06
1.42021e-06
1.41829e-06
1.41523e-06
1.41523e-06
1.41523e-06
1.41523e-06
1.41523e-06
1.41523e-06
1.41838e-06
1.41988e-06
1.42008e-06
1.41825e-06
1.41523e-06
1.41523e-06
1.41523e-06
1.41523e-06
1.41523e-06
1.41523e-06
1.41835e-06
1.41869e-06
1.41835e-06
1.41523e-06
1.41523e-06
1.41523e-06
1.41523e-06
1.41523e-06
1.41523e-06
1.41841e-06
1.42004e-06
1.41987e-06
1.41794e-06
1.41523e-06
1.41523e-06
1.41523e-06
1.41523e-06
1.41798e-06
1.41855e-06
1.42016e-06
1.42007e-06
1.41857e-06
1.41845e-06
1.41838e-06
1.41835e-06
1.41841e-06
1.41855e-06
1.41994e-06
1.42013e-06
1.41988e-06
1.41869e-06
1.42004e-06
1.42016e-06
1.40429e-06
1.40415e-06
1.40405e-06
1.40246e-06
1.40237e-06
1.40233e-06
1.40243e-06
1.40395e-06
1.40415e-06
1.40405e-06
1.402e-06
1.39931e-06
1.39931e-06
1.39931e-06
1.39931e-06
1.40202e-06
1.40265e-06
1.40246e-06
1.39931e-06
1.39931e-06
1.39931e-06
1.39931e-06
1.39931e-06
1.39931e-06
1.40252e-06
1.40421e-06
1.40429e-06
1.40237e-06
1.39931e-06
1.39931e-06
1.39931e-06
1.39931e-06
1.39931e-06
1.39931e-06
1.40246e-06
1.40395e-06
1.40415e-06
1.40233e-06
1.39931e-06
1.39931e-06
1.39931e-06
1.39931e-06
1.39931e-06
1.39931e-06
1.40243e-06
1.40277e-06
1.40243e-06
1.39931e-06
1.39931e-06
1.39931e-06
1.39931e-06
1.39931e-06
1.39931e-06
1.40249e-06
1.40412e-06
1.40395e-06
1.40202e-06
1.39931e-06
1.39931e-06
1.39931e-06
1.39931e-06
1.40205e-06
1.40263e-06
1.40424e-06
1.40415e-06
1.40265e-06
1.40252e-06
1.40246e-06
1.40243e-06
1.40249e-06
1.40263e-06
1.40402e-06
1.40421e-06
1.40396e-06
1.40277e-06
1.40412e-06
1.40424e-06
1.38837e-06
1.38823e-06
1.38813e-06
1.38654e-06
1.38645e-06
1.38641e-06
1.3865e-06
1.38803e-06
1.38823e-06
1.38813e-06
1.38608e-06
1.38339e-06
1.38339e-06
1.38339e-06
1.38339e-06
1.3861e-06
1.38673e-06
1.38654e-06
1.38339e-06
1.38339e-06
1.38339e-06
1.38339e-06
1.38339e-06
1.38339e-06
1.3866e-06
1.38829e-06
1.38836e-06
1.38645e-06
1.38339e-06
1.38339e-06
1.38339e-06
1.38339e-06
1.38339e-06
1.38339e-06
1.38654e-06
1.38803e-06
1.38823e-06
1.38641e-06
1.38339e-06
1.38339e-06
1.38339e-06
1.38339e-06
1.38339e-06
1.38339e-06
1.38651e-06
1.38685e-06
1.3865e-06
1.38339e-06
1.38339e-06
1.38339e-06
1.38339e-06
1.38339e-06
1.38339e-06
1.38657e-06
1.3882e-06
1.38803e-06
1.3861e-06
1.38339e-06
1.38339e-06
1.38339e-06
1.38339e-06
1.38613e-06
1.3867e-06
1.38832e-06
1.38823e-06
1.38673e-06
1.3866e-06
1.38654e-06
1.38651e-06
1.38657e-06
1.38671e-06
1.3881e-06
1.38829e-06
1.38803e-06
1.38685e-06
1.3882e-06
1.38832e-06
1.37244e-06
1.37231e-06
1.37221e-06
1.37062e-06
1.37053e-06
1.37049e-06
1.37058e-06
1.3721e-06
1.37231e-06
1.37221e-06
1.37015e-06
1.36747e-06
1.36747e-06
1.36747e-06
1.36747e-06
1.37018e-06
1.3708e-06
1.37062e-06
1.36747e-06
1.36747e-06
1.36747e-06
1.36747e-06
1.36747e-06
1.36747e-06
1.37068e-06
1.37237e-06
1.37244e-06
1.37053e-06
1.36747e-06
1.36747e-06
1.36747e-06
1.36747e-06
1.36747e-06
1.36747e-06
1.37062e-06
1.37211e-06
1.37231e-06
1.37049e-06
1.36747e-06
1.36747e-06
1.36747e-06
1.36747e-06
1.36747e-06
1.36747e-06
1.37059e-06
1.37093e-06
1.37058e-06
1.36747e-06
1.36747e-06
1.36747e-06
1.36747e-06
1.36747e-06
1.36747e-06
1.37065e-06
1.37228e-06
1.3721e-06
1.37018e-06
1.36747e-06
1.36747e-06
1.36747e-06
1.36747e-06
1.37021e-06
1.37078e-06
1.3724e-06
1.37231e-06
1.3708e-06
1.37068e-06
1.37062e-06
1.37059e-06
1.37065e-06
1.37078e-06
1.37218e-06
1.37237e-06
1.37211e-06
1.37093e-06
1.37228e-06
1.3724e-06
1.35652e-06
1.35639e-06
1.35629e-06
1.3547e-06
1.35461e-06
1.35457e-06
1.35466e-06
1.35618e-06
1.35639e-06
1.35629e-06
1.35423e-06
1.35155e-06
1.35155e-06
1.35155e-06
1.35155e-06
1.35426e-06
1.35488e-06
1.3547e-06
1.35155e-06
1.35155e-06
1.35155e-06
1.35155e-06
1.35155e-06
1.35155e-06
1.35476e-06
1.35644e-06
1.35652e-06
1.35461e-06
1.35155e-06
1.35155e-06
1.35155e-06
1.35155e-06
1.35155e-06
1.35155e-06
1.3547e-06
1.35619e-06
1.35639e-06
1.35457e-06
1.35155e-06
1.35155e-06
1.35155e-06
1.35155e-06
1.35155e-06
1.35155e-06
1.35466e-06
1.35501e-06
1.35466e-06
1.35155e-06
1.35155e-06
1.35155e-06
1.35155e-06
1.35155e-06
1.35155e-06
1.35473e-06
1.35636e-06
1.35618e-06
1.35426e-06
1.35155e-06
1.35155e-06
1.35155e-06
1.35155e-06
1.35429e-06
1.35486e-06
1.35648e-06
1.35639e-06
1.35488e-06
1.35476e-06
1.3547e-06
1.35466e-06
1.35473e-06
1.35486e-06
1.35626e-06
1.35644e-06
1.35619e-06
1.35501e-06
1.35636e-06
1.35648e-06
1.3406e-06
1.34047e-06
1.34037e-06
1.33878e-06
1.33869e-06
1.33865e-06
1.33874e-06
1.34026e-06
1.34046e-06
1.34037e-06
1.33831e-06
1.33563e-06
1.33563e-06
1.33563e-06
1.33563e-06
1.33834e-06
1.33896e-06
1.33878e-06
1.33563e-06
1.33563e-06
1.33563e-06
1.33563e-06
1.33563e-06
1.33563e-06
1.33884e-06
1.34052e-06
1.3406e-06
1.33869e-06
1.33563e-06
1.33563e-06
1.33563e-06
1.33563e-06
1.33563e-06
1.33563e-06
1.33878e-06
1.34027e-06
1.34047e-06
1.33865e-06
1.33563e-06
1.33563e-06
1.33563e-06
1.33563e-06
1.33563e-06
1.33563e-06
1.33874e-06
1.33909e-06
1.33874e-06
1.33563e-06
1.33563e-06
1.33563e-06
1.33563e-06
1.33563e-06
1.33563e-06
1.33881e-06
1.34043e-06
1.34026e-06
1.33834e-06
1.33563e-06
1.33563e-06
1.33563e-06
1.33563e-06
1.33837e-06
1.33894e-06
1.34055e-06
1.34046e-06
1.33896e-06
1.33884e-06
1.33878e-06
1.33874e-06
1.33881e-06
1.33894e-06
1.34034e-06
1.34052e-06
1.34027e-06
1.33909e-06
1.34043e-06
1.34055e-06
1.32468e-06
1.32455e-06
1.32444e-06
1.32286e-06
1.32277e-06
1.32272e-06
1.32282e-06
1.32434e-06
1.32454e-06
1.32444e-06
1.32239e-06
1.3197e-06
1.3197e-06
1.3197e-06
1.3197e-06
1.32242e-06
1.32304e-06
1.32286e-06
1.3197e-06
1.3197e-06
1.3197e-06
1.3197e-06
1.3197e-06
1.3197e-06
1.32292e-06
1.3246e-06
1.32468e-06
1.32277e-06
1.3197e-06
1.3197e-06
1.3197e-06
1.3197e-06
1.3197e-06
1.3197e-06
1.32286e-06
1.32435e-06
1.32455e-06
1.32272e-06
1.3197e-06
1.3197e-06
1.3197e-06
1.3197e-06
1.3197e-06
1.3197e-06
1.32282e-06
1.32317e-06
1.32282e-06
1.3197e-06
1.3197e-06
1.3197e-06
1.3197e-06
1.3197e-06
1.3197e-06
1.32289e-06
1.32451e-06
1.32434e-06
1.32242e-06
1.3197e-06
1.3197e-06
1.3197e-06
1.3197e-06
1.32245e-06
1.32302e-06
1.32463e-06
1.32454e-06
1.32304e-06
1.32292e-06
1.32286e-06
1.32282e-06
1.32289e-06
1.32302e-06
1.32442e-06
1.3246e-06
1.32435e-06
1.32317e-06
1.32451e-06
1.32463e-06
1.30876e-06
1.30863e-06
1.30852e-06
1.30694e-06
1.30684e-06
1.3068e-06
1.3069e-06
1.30842e-06
1.30862e-06
1.30852e-06
1.30647e-06
1.30378e-06
1.30378e-06
1.30378e-06
1.30378e-06
1.3065e-06
1.30712e-06
1.30694e-06
1.30378e-06
1.30378e-06
1.30378e-06
1.30378e-06
1.30378e-06
1.30378e-06
1.307e-06
1.30868e-06
1.30876e-06
1.30684e-06
1.30378e-06
1.30378e-06
1.30378e-06
1.30378e-06
1.30378e-06
1.30378e-06
1.30693e-06
1.30843e-06
1.30864e-06
1.3068e-06
1.30378e-06
1.30378e-06
1.30378e-06
1.30378e-06
1.30378e-06
1.30378e-06
1.3069e-06
1.30724e-06
1.3069e-06
1.30378e-06
1.30378e-06
1.30378e-06
1.30378e-06
1.30378e-06
1.30378e-06
1.30697e-06
1.30859e-06
1.30842e-06
1.3065e-06
1.30378e-06
1.30378e-06
1.30378e-06
1.30378e-06
1.30653e-06
1.3071e-06
1.30871e-06
1.30862e-06
1.30712e-06
1.307e-06
1.30693e-06
1.3069e-06
1.30697e-06
1.3071e-06
1.3085e-06
1.30868e-06
1.30843e-06
1.30724e-06
1.30859e-06
1.30871e-06
1.29284e-06
1.2927e-06
1.2926e-06
1.29102e-06
1.29092e-06
1.29088e-06
1.29098e-06
1.2925e-06
1.2927e-06
1.2926e-06
1.29055e-06
1.28786e-06
1.28786e-06
1.28786e-06
1.28786e-06
1.29057e-06
1.2912e-06
1.29102e-06
1.28786e-06
1.28786e-06
1.28786e-06
1.28786e-06
1.28786e-06
1.28786e-06
1.29108e-06
1.29276e-06
1.29284e-06
1.29092e-06
1.28786e-06
1.28786e-06
1.28786e-06
1.28786e-06
1.28786e-06
1.28786e-06
1.29101e-06
1.29251e-06
1.29271e-06
1.29088e-06
1.28786e-06
1.28786e-06
1.28786e-06
1.28786e-06
1.28786e-06
1.28786e-06
1.29098e-06
1.29132e-06
1.29098e-06
1.28786e-06
1.28786e-06
1.28786e-06
1.28786e-06
1.28786e-06
1.28786e-06
1.29105e-06
1.29267e-06
1.2925e-06
1.29057e-06
1.28786e-06
1.28786e-06
1.28786e-06
1.28786e-06
1.29061e-06
1.29118e-06
1.29279e-06
1.2927e-06
1.2912e-06
1.29108e-06
1.29101e-06
1.29098e-06
1.29105e-06
1.29118e-06
1.29257e-06
1.29276e-06
1.29251e-06
1.29132e-06
1.29267e-06
1.29279e-06
1.27692e-06
1.27678e-06
1.27668e-06
1.27509e-06
1.275e-06
1.27496e-06
1.27506e-06
1.27658e-06
1.27678e-06
1.27668e-06
1.27463e-06
1.27194e-06
1.27194e-06
1.27194e-06
1.27194e-06
1.27465e-06
1.27528e-06
1.27509e-06
1.27194e-06
1.27194e-06
1.27194e-06
1.27194e-06
1.27194e-06
1.27194e-06
1.27516e-06
1.27684e-06
1.27692e-06
1.275e-06
1.27194e-06
1.27194e-06
1.27194e-06
1.27194e-06
1.27194e-06
1.27194e-06
1.27509e-06
1.27659e-06
1.27678e-06
1.27496e-06
1.27194e-06
1.27194e-06
1.27194e-06
1.27194e-06
1.27194e-06
1.27194e-06
1.27506e-06
1.2754e-06
1.27506e-06
1.27194e-06
1.27194e-06
1.27194e-06
1.27194e-06
1.27194e-06
1.27194e-06
1.27512e-06
1.27675e-06
1.27658e-06
1.27465e-06
1.27194e-06
1.27194e-06
1.27194e-06
1.27194e-06
1.27469e-06
1.27526e-06
1.27687e-06
1.27678e-06
1.27528e-06
1.27516e-06
1.27509e-06
1.27506e-06
1.27512e-06
1.27526e-06
1.27665e-06
1.27684e-06
1.27659e-06
1.2754e-06
1.27675e-06
1.27687e-06
1.261e-06
1.26086e-06
1.26076e-06
1.25917e-06
1.25908e-06
1.25904e-06
1.25914e-06
1.26066e-06
1.26086e-06
1.26076e-06
1.25871e-06
1.25602e-06
1.25602e-06
1.25602e-06
1.25602e-06
1.25873e-06
1.25936e-06
1.25917e-06
1.25602e-06
1.25602e-06
1.25602e-06
1.25602e-06
1.25602e-06
1.25602e-06
1.25923e-06
1.26092e-06
1.261e-06
1.25908e-06
1.25602e-06
1.25602e-06
1.25602e-06
1.25602e-06
1.25602e-06
1.25602e-06
1.25917e-06
1.26066e-06
1.26086e-06
1.25904e-06
1.25602e-06
1.25602e-06
1.25602e-06
1.25602e-06
1.25602e-06
1.25602e-06
1.25914e-06
1.25948e-06
1.25914e-06
1.25602e-06
1.25602e-06
1.25602e-06
1.25602e-06
1.25602e-06
1.25602e-06
1.2592e-06
1.26083e-06
1.26066e-06
1.25873e-06
1.25602e-06
1.25602e-06
1.25602e-06
1.25602e-06
1.25876e-06
1.25934e-06
1.26095e-06
1.26086e-06
1.25936e-06
1.25923e-06
1.25917e-06
1.25914e-06
1.2592e-06
1.25934e-06
1.26073e-06
1.26092e-06
1.26067e-06
1.25948e-06
1.26083e-06
1.26095e-06
1.24508e-06
1.24494e-06
1.24484e-06
1.24325e-06
1.24316e-06
1.24312e-06
1.24321e-06
1.24474e-06
1.24494e-06
1.24484e-06
1.24279e-06
1.2401e-06
1.2401e-06
1.2401e-06
1.2401e-06
1.24281e-06
1.24344e-06
1.24325e-06
1.2401e-06
1.2401e-06
1.2401e-06
1.2401e-06
1.2401e-06
1.2401e-06
1.24331e-06
1.245e-06
1.24508e-06
1.24316e-06
1.2401e-06
1.2401e-06
1.2401e-06
1.2401e-06
1.2401e-06
1.2401e-06
1.24325e-06
1.24474e-06
1.24494e-06
1.24312e-06
1.2401e-06
1.2401e-06
1.2401e-06
1.2401e-06
1.2401e-06
1.2401e-06
1.24322e-06
1.24356e-06
1.24321e-06
1.2401e-06
1.2401e-06
1.2401e-06
1.2401e-06
1.2401e-06
1.2401e-06
1.24328e-06
1.24491e-06
1.24474e-06
1.24281e-06
1.2401e-06
1.2401e-06
1.2401e-06
1.2401e-06
1.24284e-06
1.24341e-06
1.24503e-06
1.24494e-06
1.24344e-06
1.24331e-06
1.24325e-06
1.24322e-06
1.24328e-06
1.24342e-06
1.24481e-06
1.245e-06
1.24474e-06
1.24356e-06
1.24491e-06
1.24503e-06
1.22915e-06
1.22902e-06
1.22892e-06
1.22733e-06
1.22724e-06
1.2272e-06
1.22729e-06
1.22881e-06
1.22902e-06
1.22892e-06
1.22686e-06
1.22418e-06
1.22418e-06
1.22418e-06
1.22418e-06
1.22689e-06
1.22751e-06
1.22733e-06
1.22418e-06
1.22418e-06
1.22418e-06
1.22418e-06
1.22418e-06
1.22418e-06
1.22739e-06
1.22908e-06
1.22915e-06
1.22724e-06
1.22418e-06
1.22418e-06
1.22418e-06
1.22418e-06
1.22418e-06
1.22418e-06
1.22733e-06
1.22882e-06
1.22902e-06
1.2272e-06
1.22418e-06
1.22418e-06
1.22418e-06
1.22418e-06
1.22418e-06
1.22418e-06
1.2273e-06
1.22764e-06
1.22729e-06
1.22418e-06
1.22418e-06
1.22418e-06
1.22418e-06
1.22418e-06
1.22418e-06
1.22736e-06
1.22899e-06
1.22881e-06
1.22689e-06
1.22418e-06
1.22418e-06
1.22418e-06
1.22418e-06
1.22692e-06
1.22749e-06
1.22911e-06
1.22902e-06
1.22751e-06
1.22739e-06
1.22733e-06
1.2273e-06
1.22736e-06
1.22749e-06
1.22889e-06
1.22908e-06
1.22882e-06
1.22764e-06
1.22899e-06
1.22911e-06
1.21323e-06
1.2131e-06
1.213e-06
1.21141e-06
1.21132e-06
1.21128e-06
1.21137e-06
1.21289e-06
1.21309e-06
1.213e-06
1.21094e-06
1.20826e-06
1.20826e-06
1.20826e-06
1.20826e-06
1.21097e-06
1.21159e-06
1.21141e-06
1.20826e-06
1.20826e-06
1.20826e-06
1.20826e-06
1.20826e-06
1.20826e-06
1.21147e-06
1.21315e-06
1.21323e-06
1.21132e-06
1.20826e-06
1.20826e-06
1.20826e-06
1.20826e-06
1.20826e-06
1.20826e-06
1.21141e-06
1.2129e-06
1.2131e-06
1.21128e-06
1.20826e-06
1.20826e-06
1.20826e-06
1.20826e-06
1.20826e-06
1.20826e-06
1.21137e-06
1.21172e-06
1.21137e-06
1.20826e-06
1.20826e-06
1.20826e-06
1.20826e-06
1.20826e-06
1.20826e-06
1.21144e-06
1.21307e-06
1.21289e-06
1.21097e-06
1.20826e-06
1.20826e-06
1.20826e-06
1.20826e-06
1.211e-06
1.21157e-06
1.21319e-06
1.2131e-06
1.21159e-06
1.21147e-06
1.21141e-06
1.21138e-06
1.21144e-06
1.21157e-06
1.21297e-06
1.21315e-06
1.2129e-06
1.21172e-06
1.21307e-06
1.21319e-06
1.19731e-06
1.19718e-06
1.19708e-06
1.19549e-06
1.1954e-06
1.19536e-06
1.19545e-06
1.19697e-06
1.19717e-06
1.19708e-06
1.19502e-06
1.19234e-06
1.19234e-06
1.19234e-06
1.19234e-06
1.19505e-06
1.19567e-06
1.19549e-06
1.19234e-06
1.19234e-06
1.19234e-06
1.19234e-06
1.19234e-06
1.19234e-06
1.19555e-06
1.19723e-06
1.19731e-06
1.1954e-06
1.19234e-06
1.19234e-06
1.19234e-06
1.19234e-06
1.19234e-06
1.19234e-06
1.19549e-06
1.19698e-06
1.19718e-06
1.19535e-06
1.19234e-06
1.19234e-06
1.19234e-06
1.19234e-06
1.19234e-06
1.19234e-06
1.19545e-06
1.1958e-06
1.19545e-06
1.19234e-06
1.19234e-06
1.19234e-06
1.19234e-06
1.19234e-06
1.19234e-06
1.19552e-06
1.19714e-06
1.19697e-06
1.19505e-06
1.19234e-06
1.19234e-06
1.19234e-06
1.19234e-06
1.19508e-06
1.19565e-06
1.19726e-06
1.19717e-06
1.19567e-06
1.19555e-06
1.19549e-06
1.19545e-06
1.19552e-06
1.19565e-06
1.19705e-06
1.19723e-06
1.19698e-06
1.1958e-06
1.19715e-06
1.19727e-06
1.18139e-06
1.18126e-06
1.18115e-06
1.17957e-06
1.17948e-06
1.17943e-06
1.17953e-06
1.18105e-06
1.18125e-06
1.18115e-06
1.1791e-06
1.17641e-06
1.17641e-06
1.17641e-06
1.17641e-06
1.17913e-06
1.17975e-06
1.17957e-06
1.17641e-06
1.17641e-06
1.17641e-06
1.17641e-06
1.17641e-06
1.17641e-06
1.17963e-06
1.18131e-06
1.18139e-06
1.17948e-06
1.17641e-06
1.17641e-06
1.17641e-06
1.17641e-06
1.17641e-06
1.17641e-06
1.17957e-06
1.18106e-06
1.18126e-06
1.17943e-06
1.17641e-06
1.17641e-06
1.17641e-06
1.17641e-06
1.17641e-06
1.17641e-06
1.17953e-06
1.17988e-06
1.17953e-06
1.17641e-06
1.17641e-06
1.17641e-06
1.17641e-06
1.17641e-06
1.17641e-06
1.1796e-06
1.18122e-06
1.18105e-06
1.17913e-06
1.17641e-06
1.17641e-06
1.17641e-06
1.17641e-06
1.17916e-06
1.17973e-06
1.18134e-06
1.18125e-06
1.17975e-06
1.17963e-06
1.17957e-06
1.17953e-06
1.1796e-06
1.17973e-06
1.18113e-06
1.18131e-06
1.18106e-06
1.17987e-06
1.18122e-06
1.18134e-06
1.16547e-06
1.16534e-06
1.16523e-06
1.16365e-06
1.16355e-06
1.16351e-06
1.16361e-06
1.16513e-06
1.16533e-06
1.16523e-06
1.16318e-06
1.16049e-06
1.16049e-06
1.16049e-06
1.16049e-06
1.16321e-06
1.16383e-06
1.16365e-06
1.16049e-06
1.16049e-06
1.16049e-06
1.16049e-06
1.16049e-06
1.16049e-06
1.16371e-06
1.16539e-06
1.16547e-06
1.16355e-06
1.16049e-06
1.16049e-06
1.16049e-06
1.16049e-06
1.16049e-06
1.16049e-06
1.16364e-06
1.16514e-06
1.16534e-06
1.16351e-06
1.16049e-06
1.16049e-06
1.16049e-06
1.16049e-06
1.16049e-06
1.16049e-06
1.16361e-06
1.16395e-06
1.16361e-06
1.16049e-06
1.16049e-06
1.16049e-06
1.16049e-06
1.16049e-06
1.16049e-06
1.16368e-06
1.1653e-06
1.16513e-06
1.16321e-06
1.16049e-06
1.16049e-06
1.16049e-06
1.16049e-06
1.16324e-06
1.16381e-06
1.16542e-06
1.16533e-06
1.16383e-06
1.16371e-06
1.16364e-06
1.16361e-06
1.16368e-06
1.16381e-06
1.16521e-06
1.16539e-06
1.16514e-06
1.16395e-06
1.1653e-06
1.16542e-06
1.14955e-06
1.14941e-06
1.14931e-06
1.14773e-06
1.14763e-06
1.14759e-06
1.14769e-06
1.14921e-06
1.14941e-06
1.14931e-06
1.14726e-06
1.14457e-06
1.14457e-06
1.14457e-06
1.14457e-06
1.14728e-06
1.14791e-06
1.14773e-06
1.14457e-06
1.14457e-06
1.14457e-06
1.14457e-06
1.14457e-06
1.14457e-06
1.14779e-06
1.14947e-06
1.14955e-06
1.14763e-06
1.14457e-06
1.14457e-06
1.14457e-06
1.14457e-06
1.14457e-06
1.14457e-06
1.14772e-06
1.14922e-06
1.14941e-06
1.14759e-06
1.14457e-06
1.14457e-06
1.14457e-06
1.14457e-06
1.14457e-06
1.14457e-06
1.14769e-06
1.14803e-06
1.14769e-06
1.14457e-06
1.14457e-06
1.14457e-06
1.14457e-06
1.14457e-06
1.14457e-06
1.14776e-06
1.14938e-06
1.14921e-06
1.14728e-06
1.14457e-06
1.14457e-06
1.14457e-06
1.14457e-06
1.14732e-06
1.14789e-06
1.1495e-06
1.14941e-06
1.14791e-06
1.14779e-06
1.14772e-06
1.14769e-06
1.14776e-06
1.14789e-06
1.14928e-06
1.14947e-06
1.14922e-06
1.14803e-06
1.14938e-06
1.1495e-06
1.13363e-06
1.13349e-06
1.13339e-06
1.1318e-06
1.13171e-06
1.13167e-06
1.13177e-06
1.13329e-06
1.13349e-06
1.13339e-06
1.13134e-06
1.12865e-06
1.12865e-06
1.12865e-06
1.12865e-06
1.13136e-06
1.13199e-06
1.1318e-06
1.12865e-06
1.12865e-06
1.12865e-06
1.12865e-06
1.12865e-06
1.12865e-06
1.13187e-06
1.13355e-06
1.13363e-06
1.13171e-06
1.12865e-06
1.12865e-06
1.12865e-06
1.12865e-06
1.12865e-06
1.12865e-06
1.1318e-06
1.1333e-06
1.13349e-06
1.13167e-06
1.12865e-06
1.12865e-06
1.12865e-06
1.12865e-06
1.12865e-06
1.12865e-06
1.13177e-06
1.13211e-06
1.13177e-06
1.12865e-06
1.12865e-06
1.12865e-06
1.12865e-06
1.12865e-06
1.12865e-06
1.13184e-06
1.13346e-06
1.13329e-06
1.13136e-06
1.12865e-06
1.12865e-06
1.12865e-06
1.12865e-06
1.1314e-06
1.13197e-06
1.13358e-06
1.13349e-06
1.13199e-06
1.13187e-06
1.1318e-06
1.13177e-06
1.13184e-06
1.13197e-06
1.13336e-06
1.13355e-06
1.13329e-06
1.13211e-06
1.13346e-06
1.13358e-06
1.11771e-06
1.11757e-06
1.11747e-06
1.11588e-06
1.11579e-06
1.11575e-06
1.11585e-06
1.11737e-06
1.11757e-06
1.11747e-06
1.11542e-06
1.11273e-06
1.11273e-06
1.11273e-06
1.11273e-06
1.11544e-06
1.11607e-06
1.11588e-06
1.11273e-06
1.11273e-06
1.11273e-06
1.11273e-06
1.11273e-06
1.11273e-06
1.11594e-06
1.11763e-06
1.11771e-06
1.11579e-06
1.11273e-06
1.11273e-06
1.11273e-06
1.11273e-06
1.11273e-06
1.11273e-06
1.11588e-06
1.11737e-06
1.11757e-06
1.11575e-06
1.11273e-06
1.11273e-06
1.11273e-06
1.11273e-06
1.11273e-06
1.11273e-06
1.11585e-06
1.11619e-06
1.11585e-06
1.11273e-06
1.11273e-06
1.11273e-06
1.11273e-06
1.11273e-06
1.11273e-06
1.11591e-06
1.11754e-06
1.11737e-06
1.11544e-06
1.11273e-06
1.11273e-06
1.11273e-06
1.11273e-06
1.11547e-06
1.11605e-06
1.11766e-06
1.11757e-06
1.11607e-06
1.11594e-06
1.11588e-06
1.11585e-06
1.11591e-06
1.11605e-06
1.11744e-06
1.11763e-06
1.11737e-06
1.11619e-06
1.11754e-06
1.11766e-06
1.10178e-06
1.10165e-06
1.10155e-06
1.09996e-06
1.09987e-06
1.09983e-06
1.09992e-06
1.10145e-06
1.10165e-06
1.10155e-06
1.09949e-06
1.09681e-06
1.09681e-06
1.09681e-06
1.09681e-06
1.09952e-06
1.10015e-06
1.09996e-06
1.09681e-06
1.09681e-06
1.09681e-06
1.09681e-06
1.09681e-06
1.09681e-06
1.10002e-06
1.10171e-06
1.10178e-06
1.09987e-06
1.09681e-06
1.09681e-06
1.09681e-06
1.09681e-06
1.09681e-06
1.09681e-06
1.09996e-06
1.10145e-06
1.10165e-06
1.09983e-06
1.09681e-06
1.09681e-06
1.09681e-06
1.09681e-06
1.09681e-06
1.09681e-06
1.09993e-06
1.10027e-06
1.09992e-06
1.09681e-06
1.09681e-06
1.09681e-06
1.09681e-06
1.09681e-06
1.09681e-06
1.09999e-06
1.10162e-06
1.10145e-06
1.09952e-06
1.09681e-06
1.09681e-06
1.09681e-06
1.09681e-06
1.09955e-06
1.10012e-06
1.10174e-06
1.10165e-06
1.10015e-06
1.10002e-06
1.09996e-06
1.09993e-06
1.09999e-06
1.10013e-06
1.10152e-06
1.10171e-06
1.10145e-06
1.10027e-06
1.10162e-06
1.10174e-06
1.08586e-06
1.08573e-06
1.08563e-06
1.08404e-06
1.08395e-06
1.08391e-06
1.084e-06
1.08552e-06
1.08573e-06
1.08563e-06
1.08357e-06
1.08089e-06
1.08089e-06
1.08089e-06
1.08089e-06
1.0836e-06
1.08422e-06
1.08404e-06
1.08089e-06
1.08089e-06
1.08089e-06
1.08089e-06
1.08089e-06
1.08089e-06
1.0841e-06
1.08579e-06
1.08586e-06
1.08395e-06
1.08089e-06
1.08089e-06
1.08089e-06
1.08089e-06
1.08089e-06
1.08089e-06
1.08404e-06
1.08553e-06
1.08573e-06
1.08391e-06
1.08089e-06
1.08089e-06
1.08089e-06
1.08089e-06
1.08089e-06
1.08089e-06
1.08401e-06
1.08435e-06
1.084e-06
1.08089e-06
1.08089e-06
1.08089e-06
1.08089e-06
1.08089e-06
1.08089e-06
1.08407e-06
1.0857e-06
1.08552e-06
1.0836e-06
1.08089e-06
1.08089e-06
1.08089e-06
1.08089e-06
1.08363e-06
1.0842e-06
1.08582e-06
1.08573e-06
1.08422e-06
1.0841e-06
1.08404e-06
1.08401e-06
1.08407e-06
1.0842e-06
1.0856e-06
1.08579e-06
1.08553e-06
1.08435e-06
1.0857e-06
1.08582e-06
1.06994e-06
1.06981e-06
1.06971e-06
1.06812e-06
1.06803e-06
1.06799e-06
1.06808e-06
1.0696e-06
1.0698e-06
1.06971e-06
1.06765e-06
1.06497e-06
1.06497e-06
1.06497e-06
1.06497e-06
1.06768e-06
1.0683e-06
1.06812e-06
1.06497e-06
1.06497e-06
1.06497e-06
1.06497e-06
1.06497e-06
1.06497e-06
1.06818e-06
1.06986e-06
1.06994e-06
1.06803e-06
1.06497e-06
1.06497e-06
1.06497e-06
1.06497e-06
1.06497e-06
1.06497e-06
1.06812e-06
1.06961e-06
1.06981e-06
1.06799e-06
1.06497e-06
1.06497e-06
1.06497e-06
1.06497e-06
1.06497e-06
1.06497e-06
1.06808e-06
1.06843e-06
1.06808e-06
1.06497e-06
1.06497e-06
1.06497e-06
1.06497e-06
1.06497e-06
1.06497e-06
1.06815e-06
1.06978e-06
1.0696e-06
1.06768e-06
1.06497e-06
1.06497e-06
1.06497e-06
1.06497e-06
1.06771e-06
1.06828e-06
1.0699e-06
1.06981e-06
1.0683e-06
1.06818e-06
1.06812e-06
1.06808e-06
1.06815e-06
1.06828e-06
1.06968e-06
1.06986e-06
1.06961e-06
1.06843e-06
1.06978e-06
1.0699e-06
1.05402e-06
1.05389e-06
1.05378e-06
1.0522e-06
1.05211e-06
1.05206e-06
1.05216e-06
1.05368e-06
1.05388e-06
1.05378e-06
1.05173e-06
1.04905e-06
1.04905e-06
1.04905e-06
1.04905e-06
1.05176e-06
1.05238e-06
1.0522e-06
1.04905e-06
1.04905e-06
1.04905e-06
1.04905e-06
1.04905e-06
1.04905e-06
1.05226e-06
1.05394e-06
1.05402e-06
1.05211e-06
1.04905e-06
1.04905e-06
1.04905e-06
1.04905e-06
1.04905e-06
1.04905e-06
1.0522e-06
1.05369e-06
1.05388e-06
1.05207e-06
1.04905e-06
1.04905e-06
1.04905e-06
1.04905e-06
1.04905e-06
1.04905e-06
1.05216e-06
1.05251e-06
1.05216e-06
1.04905e-06
1.04905e-06
1.04905e-06
1.04905e-06
1.04905e-06
1.04905e-06
1.05223e-06
1.05385e-06
1.05368e-06
1.05176e-06
1.04905e-06
1.04905e-06
1.04905e-06
1.04905e-06
1.05179e-06
1.05236e-06
1.05397e-06
1.05388e-06
1.05238e-06
1.05226e-06
1.0522e-06
1.05216e-06
1.05223e-06
1.05236e-06
1.05376e-06
1.05394e-06
1.05369e-06
1.05251e-06
1.05385e-06
1.05397e-06
1.0381e-06
1.03797e-06
1.03786e-06
1.03628e-06
1.03618e-06
1.03614e-06
1.03624e-06
1.03776e-06
1.03796e-06
1.03786e-06
1.03581e-06
1.03312e-06
1.03312e-06
1.03312e-06
1.03312e-06
1.03584e-06
1.03646e-06
1.03628e-06
1.03312e-06
1.03312e-06
1.03312e-06
1.03312e-06
1.03312e-06
1.03312e-06
1.03634e-06
1.03802e-06
1.0381e-06
1.03618e-06
1.03312e-06
1.03312e-06
1.03312e-06
1.03312e-06
1.03312e-06
1.03312e-06
1.03628e-06
1.03777e-06
1.03797e-06
1.03614e-06
1.03312e-06
1.03312e-06
1.03312e-06
1.03312e-06
1.03312e-06
1.03312e-06
1.03624e-06
1.03658e-06
1.03624e-06
1.03312e-06
1.03312e-06
1.03312e-06
1.03312e-06
1.03312e-06
1.03312e-06
1.03631e-06
1.03793e-06
1.03776e-06
1.03584e-06
1.03312e-06
1.03312e-06
1.03312e-06
1.03312e-06
1.03587e-06
1.03644e-06
1.03805e-06
1.03796e-06
1.03646e-06
1.03634e-06
1.03628e-06
1.03624e-06
1.03631e-06
1.03644e-06
1.03784e-06
1.03802e-06
1.03777e-06
1.03658e-06
1.03793e-06
1.03805e-06
1.02218e-06
1.02205e-06
1.02194e-06
1.02036e-06
1.02026e-06
1.02022e-06
1.02032e-06
1.02184e-06
1.02204e-06
1.02194e-06
1.01989e-06
1.0172e-06
1.0172e-06
1.0172e-06
1.0172e-06
1.01992e-06
1.02054e-06
1.02036e-06
1.0172e-06
1.0172e-06
1.0172e-06
1.0172e-06
1.0172e-06
1.0172e-06
1.02042e-06
1.0221e-06
1.02218e-06
1.02026e-06
1.0172e-06
1.0172e-06
1.0172e-06
1.0172e-06
1.0172e-06
1.0172e-06
1.02035e-06
1.02185e-06
1.02205e-06
1.02022e-06
1.0172e-06
1.0172e-06
1.0172e-06
1.0172e-06
1.0172e-06
1.0172e-06
1.02032e-06
1.02066e-06
1.02032e-06
1.0172e-06
1.0172e-06
1.0172e-06
1.0172e-06
1.0172e-06
1.0172e-06
1.02039e-06
1.02201e-06
1.02184e-06
1.01992e-06
1.0172e-06
1.0172e-06
1.0172e-06
1.0172e-06
1.01995e-06
1.02052e-06
1.02213e-06
1.02204e-06
1.02054e-06
1.02042e-06
1.02035e-06
1.02032e-06
1.02039e-06
1.02052e-06
1.02191e-06