/*--------------------------------*- C++ -*----------------------------------*\
| =========                 |                                                 |
| \\      /  F ield         | OpenFOAM: The Open Source CFD Toolbox           |
|  \\    /   O peration     | Version:  v2012                                 |
|   \\  /    A nd           | Website:  www.openfoam.com                      |
|    \\/     M anipulation  |                                                 |
\*---------------------------------------------------------------------------*/
FoamFile
{
    version     2.0;
    format      ascii;
    class       volScalarField;
    location    "0.02";
    object      p;
}
// * * * * * * * * * * * * * * * * * * * * * * * * * * * * * * * * * * * * * //

dimensions      [0 2 -2 0 0 0 0];


internalField   nonuniform List<scalar> 
244288
(
2.98945e-06
2.99078e-06
2.9903e-06
2.98983e-06
2.9895e-06
2.98983e-06
2.99031e-06
2.9908e-06
2.99136e-06
2.99136e-06
2.99089e-06
2.99054e-06
2.9909e-06
2.99128e-06
2.99115e-06
2.99034e-06
2.99137e-06
2.99124e-06
2.99075e-06
2.9905e-06
2.99075e-06
2.99118e-06
2.99117e-06
2.98991e-06
2.98988e-06
2.9909e-06
2.99074e-06
2.99031e-06
2.9901e-06
2.9903e-06
2.9907e-06
2.99072e-06
2.98943e-06
2.9894e-06
2.98947e-06
2.99052e-06
2.99049e-06
2.9901e-06
2.98991e-06
2.9901e-06
2.99045e-06
2.99037e-06
2.98923e-06
2.98974e-06
2.99086e-06
2.99073e-06
2.99029e-06
2.99009e-06
2.9903e-06
2.9907e-06
2.99075e-06
2.98943e-06
2.99024e-06
2.99125e-06
2.99116e-06
2.99069e-06
2.99043e-06
2.99069e-06
2.99112e-06
2.9911e-06
2.98997e-06
2.99114e-06
2.99118e-06
2.99072e-06
2.99034e-06
2.9907e-06
2.99107e-06
2.99096e-06
2.98993e-06
2.98947e-06
2.98918e-06
2.98932e-06
2.9899e-06
2.94984e-06
2.94806e-06
2.95524e-06
2.95322e-06
2.95116e-06
2.95136e-06
2.951e-06
2.9574e-06
2.9564e-06
2.95525e-06
2.95265e-06
2.9485e-06
2.94787e-06
2.94784e-06
2.94841e-06
2.95456e-06
2.954e-06
2.95314e-06
2.94845e-06
2.9484e-06
2.94825e-06
2.94823e-06
2.94836e-06
2.9484e-06
2.95403e-06
2.95911e-06
2.94974e-06
2.951e-06
2.94783e-06
2.94824e-06
2.94833e-06
2.94831e-06
2.9482e-06
2.94779e-06
2.95218e-06
2.95544e-06
2.9482e-06
2.95129e-06
2.94781e-06
2.94821e-06
2.9483e-06
2.94828e-06
2.94817e-06
2.94776e-06
2.95216e-06
2.94967e-06
2.95112e-06
2.94839e-06
2.94832e-06
2.94817e-06
2.94815e-06
2.94827e-06
2.94834e-06
2.95255e-06
2.95305e-06
2.95755e-06
2.95456e-06
2.94835e-06
2.94772e-06
2.94769e-06
2.94825e-06
2.95482e-06
2.95472e-06
2.95874e-06
2.95643e-06
2.95397e-06
2.95393e-06
2.95203e-06
2.95206e-06
2.95249e-06
2.95427e-06
2.96183e-06
2.95882e-06
2.95516e-06
2.94954e-06
2.95332e-06
2.9588e-06
2.9271e-06
2.92772e-06
2.92566e-06
2.92498e-06
2.92496e-06
2.92441e-06
2.92506e-06
2.9296e-06
2.9287e-06
2.92545e-06
2.92486e-06
2.9282e-06
2.92699e-06
2.92702e-06
2.9283e-06
2.93313e-06
2.92612e-06
2.92492e-06
2.92806e-06
2.92671e-06
2.9261e-06
2.92612e-06
2.92678e-06
2.92819e-06
2.93336e-06
2.9299e-06
2.92729e-06
2.92506e-06
2.9269e-06
2.92607e-06
2.92564e-06
2.92565e-06
2.9261e-06
2.92693e-06
2.93124e-06
2.92856e-06
2.92761e-06
2.92443e-06
2.92689e-06
2.92606e-06
2.92563e-06
2.92564e-06
2.92611e-06
2.92701e-06
2.93005e-06
2.92305e-06
2.92494e-06
2.92815e-06
2.92671e-06
2.92607e-06
2.92606e-06
2.92675e-06
2.92845e-06
2.93263e-06
2.92919e-06
2.92948e-06
2.93305e-06
2.92818e-06
2.92691e-06
2.92683e-06
2.928e-06
2.93685e-06
2.93031e-06
2.92836e-06
2.92856e-06
2.92606e-06
2.93332e-06
2.93124e-06
2.92995e-06
2.93241e-06
2.93029e-06
2.93445e-06
2.9298e-06
2.92848e-06
2.92312e-06
2.92889e-06
2.92808e-06
2.8909e-06
2.89137e-06
2.89028e-06
2.88887e-06
2.88884e-06
2.88844e-06
2.88911e-06
2.89472e-06
2.89315e-06
2.89003e-06
2.88848e-06
2.88738e-06
2.88696e-06
2.88699e-06
2.88755e-06
2.89943e-06
2.8911e-06
2.88889e-06
2.88745e-06
2.88751e-06
2.88746e-06
2.8875e-06
2.88764e-06
2.88772e-06
2.90101e-06
2.89478e-06
2.89088e-06
2.88896e-06
2.88698e-06
2.88747e-06
2.88761e-06
2.88763e-06
2.88753e-06
2.88705e-06
2.89858e-06
2.89275e-06
2.8914e-06
2.88848e-06
2.88702e-06
2.88752e-06
2.88764e-06
2.88765e-06
2.88753e-06
2.88701e-06
2.89703e-06
2.88795e-06
2.88909e-06
2.88761e-06
2.88767e-06
2.88755e-06
2.88755e-06
2.88765e-06
2.88753e-06
2.90011e-06
2.89333e-06
2.89468e-06
2.89942e-06
2.88776e-06
2.88709e-06
2.88708e-06
2.88775e-06
2.9052e-06
2.89654e-06
2.89346e-06
2.89312e-06
2.89113e-06
2.90102e-06
2.89862e-06
2.89707e-06
2.90018e-06
2.89668e-06
2.89982e-06
2.89482e-06
2.89276e-06
2.88793e-06
2.89326e-06
2.89338e-06
2.86194e-06
2.86252e-06
2.8607e-06
2.85896e-06
2.85858e-06
2.8582e-06
2.85915e-06
2.86555e-06
2.86402e-06
2.86074e-06
2.85768e-06
2.85355e-06
2.85347e-06
2.85349e-06
2.85363e-06
2.86952e-06
2.86153e-06
2.8589e-06
2.85358e-06
2.85363e-06
2.85364e-06
2.85365e-06
2.85368e-06
2.85367e-06
2.87267e-06
2.86576e-06
2.86196e-06
2.85861e-06
2.85349e-06
2.85365e-06
2.85371e-06
2.85371e-06
2.85366e-06
2.8535e-06
2.87062e-06
2.8634e-06
2.86248e-06
2.85827e-06
2.85352e-06
2.85367e-06
2.85372e-06
2.85372e-06
2.85366e-06
2.85348e-06
2.86913e-06
2.85833e-06
2.85926e-06
2.85366e-06
2.85369e-06
2.85368e-06
2.85367e-06
2.85368e-06
2.8536e-06
2.87197e-06
2.86408e-06
2.86558e-06
2.86955e-06
2.85367e-06
2.85352e-06
2.85352e-06
2.85369e-06
2.8769e-06
2.86747e-06
2.86439e-06
2.86408e-06
2.86154e-06
2.87269e-06
2.87065e-06
2.86922e-06
2.87214e-06
2.86787e-06
2.87052e-06
2.86558e-06
2.86341e-06
2.85838e-06
2.86412e-06
2.86444e-06
2.83129e-06
2.83186e-06
2.83029e-06
2.82827e-06
2.82756e-06
2.82724e-06
2.82837e-06
2.83523e-06
2.83377e-06
2.83022e-06
2.82686e-06
2.82148e-06
2.82148e-06
2.82149e-06
2.82152e-06
2.83893e-06
2.83125e-06
2.8282e-06
2.82149e-06
2.82152e-06
2.82153e-06
2.82154e-06
2.82155e-06
2.82154e-06
2.84247e-06
2.83544e-06
2.83123e-06
2.82765e-06
2.82148e-06
2.82154e-06
2.82156e-06
2.82156e-06
2.82155e-06
2.82151e-06
2.84045e-06
2.83275e-06
2.83173e-06
2.82722e-06
2.82151e-06
2.82156e-06
2.82158e-06
2.82158e-06
2.82156e-06
2.82151e-06
2.83903e-06
2.82754e-06
2.8286e-06
2.82161e-06
2.8216e-06
2.82159e-06
2.82158e-06
2.82157e-06
2.82153e-06
2.84181e-06
2.83355e-06
2.83538e-06
2.83904e-06
2.82163e-06
2.82156e-06
2.82154e-06
2.82158e-06
2.84686e-06
2.83726e-06
2.8341e-06
2.83394e-06
2.83134e-06
2.84251e-06
2.84054e-06
2.83911e-06
2.84192e-06
2.83783e-06
2.84042e-06
2.83536e-06
2.83285e-06
2.82769e-06
2.83361e-06
2.8343e-06
2.80005e-06
2.80064e-06
2.79892e-06
2.79704e-06
2.79626e-06
2.79596e-06
2.79717e-06
2.80413e-06
2.80271e-06
2.79906e-06
2.79567e-06
2.7899e-06
2.78989e-06
2.7899e-06
2.78992e-06
2.80775e-06
2.80017e-06
2.79698e-06
2.78992e-06
2.78992e-06
2.78992e-06
2.78992e-06
2.78992e-06
2.78991e-06
2.81139e-06
2.80433e-06
2.80004e-06
2.79638e-06
2.78993e-06
2.78994e-06
2.78994e-06
2.78993e-06
2.78993e-06
2.78991e-06
2.80937e-06
2.80158e-06
2.80076e-06
2.79595e-06
2.78997e-06
2.78996e-06
2.78995e-06
2.78994e-06
2.78993e-06
2.78991e-06
2.80796e-06
2.7963e-06
2.79734e-06
2.78998e-06
2.78997e-06
2.78995e-06
2.78994e-06
2.78993e-06
2.78992e-06
2.81069e-06
2.80233e-06
2.80437e-06
2.80786e-06
2.78998e-06
2.78995e-06
2.78994e-06
2.78993e-06
2.81583e-06
2.8062e-06
2.80297e-06
2.80288e-06
2.80037e-06
2.81149e-06
2.80946e-06
2.80812e-06
2.8109e-06
2.80678e-06
2.80927e-06
2.80436e-06
2.80169e-06
2.79652e-06
2.80246e-06
2.80325e-06
2.76871e-06
2.76931e-06
2.76761e-06
2.76574e-06
2.76488e-06
2.7646e-06
2.76585e-06
2.77281e-06
2.77139e-06
2.76788e-06
2.76435e-06
2.75844e-06
2.75844e-06
2.75845e-06
2.75846e-06
2.77637e-06
2.76891e-06
2.76566e-06
2.75843e-06
2.75844e-06
2.75845e-06
2.75845e-06
2.75846e-06
2.75847e-06
2.78004e-06
2.773e-06
2.76854e-06
2.76496e-06
2.75843e-06
2.75844e-06
2.75845e-06
2.75845e-06
2.75845e-06
2.75845e-06
2.77805e-06
2.77024e-06
2.76935e-06
2.76456e-06
2.75843e-06
2.75845e-06
2.75845e-06
2.75845e-06
2.75845e-06
2.75845e-06
2.77664e-06
2.76495e-06
2.76594e-06
2.75845e-06
2.75845e-06
2.75845e-06
2.75845e-06
2.75846e-06
2.75845e-06
2.77934e-06
2.77098e-06
2.77291e-06
2.77645e-06
2.75846e-06
2.75845e-06
2.75846e-06
2.75847e-06
2.78452e-06
2.77489e-06
2.77165e-06
2.77144e-06
2.76891e-06
2.78009e-06
2.7781e-06
2.77678e-06
2.77954e-06
2.77541e-06
2.77799e-06
2.77298e-06
2.77025e-06
2.76506e-06
2.77111e-06
2.7719e-06
2.73734e-06
2.73792e-06
2.73627e-06
2.73437e-06
2.7335e-06
2.7332e-06
2.73447e-06
2.74145e-06
2.74002e-06
2.73657e-06
2.733e-06
2.72703e-06
2.72701e-06
2.72701e-06
2.727e-06
2.74503e-06
2.73754e-06
2.73434e-06
2.72702e-06
2.72701e-06
2.72701e-06
2.727e-06
2.727e-06
2.727e-06
2.74867e-06
2.74163e-06
2.73734e-06
2.73357e-06
2.72698e-06
2.72699e-06
2.72699e-06
2.72699e-06
2.72699e-06
2.72699e-06
2.74668e-06
2.73886e-06
2.7378e-06
2.73309e-06
2.72695e-06
2.72697e-06
2.72698e-06
2.72698e-06
2.72699e-06
2.72698e-06
2.74526e-06
2.73357e-06
2.73426e-06
2.72694e-06
2.72695e-06
2.72697e-06
2.72698e-06
2.72698e-06
2.727e-06
2.74797e-06
2.73958e-06
2.74133e-06
2.7449e-06
2.72694e-06
2.72696e-06
2.72697e-06
2.72698e-06
2.75313e-06
2.74352e-06
2.74025e-06
2.73994e-06
2.73739e-06
2.74863e-06
2.74662e-06
2.74529e-06
2.74808e-06
2.74406e-06
2.7466e-06
2.74152e-06
2.73881e-06
2.73363e-06
2.73965e-06
2.74048e-06
2.70594e-06
2.70651e-06
2.70486e-06
2.70298e-06
2.70211e-06
2.70181e-06
2.70303e-06
2.71002e-06
2.70859e-06
2.70516e-06
2.70162e-06
2.6956e-06
2.69559e-06
2.69557e-06
2.69557e-06
2.7136e-06
2.70611e-06
2.70301e-06
2.69558e-06
2.69559e-06
2.69558e-06
2.69557e-06
2.69556e-06
2.69555e-06
2.71726e-06
2.7102e-06
2.70623e-06
2.70219e-06
2.69557e-06
2.69557e-06
2.69556e-06
2.69556e-06
2.69555e-06
2.69555e-06
2.71524e-06
2.70742e-06
2.70645e-06
2.70172e-06
2.69554e-06
2.69554e-06
2.69554e-06
2.69554e-06
2.69554e-06
2.69554e-06
2.71383e-06
2.70212e-06
2.70276e-06
2.69553e-06
2.69552e-06
2.69553e-06
2.69553e-06
2.69553e-06
2.69554e-06
2.71652e-06
2.70814e-06
2.70987e-06
2.71347e-06
2.69551e-06
2.69551e-06
2.69552e-06
2.69553e-06
2.7217e-06
2.71208e-06
2.70882e-06
2.70848e-06
2.70594e-06
2.7172e-06
2.71523e-06
2.71386e-06
2.71665e-06
2.71264e-06
2.71518e-06
2.71005e-06
2.70735e-06
2.70213e-06
2.70821e-06
2.70904e-06
2.67448e-06
2.67507e-06
2.67346e-06
2.6715e-06
2.67067e-06
2.67038e-06
2.67157e-06
2.67857e-06
2.67715e-06
2.67368e-06
2.67016e-06
2.66414e-06
2.66413e-06
2.66412e-06
2.66412e-06
2.68215e-06
2.67467e-06
2.67148e-06
2.66415e-06
2.66413e-06
2.66412e-06
2.66412e-06
2.66411e-06
2.66411e-06
2.68582e-06
2.67876e-06
2.67399e-06
2.67075e-06
2.66412e-06
2.66412e-06
2.66411e-06
2.66411e-06
2.66411e-06
2.66411e-06
2.68381e-06
2.67597e-06
2.67503e-06
2.67024e-06
2.6641e-06
2.6641e-06
2.6641e-06
2.66411e-06
2.66411e-06
2.66411e-06
2.6824e-06
2.67069e-06
2.67139e-06
2.66409e-06
2.66409e-06
2.6641e-06
2.6641e-06
2.6641e-06
2.66411e-06
2.68509e-06
2.67671e-06
2.6785e-06
2.68204e-06
2.66408e-06
2.66409e-06
2.6641e-06
2.6641e-06
2.69027e-06
2.68065e-06
2.67737e-06
2.67705e-06
2.67459e-06
2.68581e-06
2.68379e-06
2.68243e-06
2.68521e-06
2.68121e-06
2.68375e-06
2.67863e-06
2.67594e-06
2.67071e-06
2.67679e-06
2.67761e-06
2.64301e-06
2.64359e-06
2.64195e-06
2.64e-06
2.63915e-06
2.63886e-06
2.64014e-06
2.64712e-06
2.6457e-06
2.64212e-06
2.63864e-06
2.63265e-06
2.63265e-06
2.63266e-06
2.63266e-06
2.6507e-06
2.64321e-06
2.63997e-06
2.63264e-06
2.63265e-06
2.63266e-06
2.63266e-06
2.63266e-06
2.63265e-06
2.65435e-06
2.6473e-06
2.64308e-06
2.63914e-06
2.63266e-06
2.63266e-06
2.63266e-06
2.63266e-06
2.63266e-06
2.63266e-06
2.65234e-06
2.64453e-06
2.64354e-06
2.6389e-06
2.63267e-06
2.63267e-06
2.63266e-06
2.63266e-06
2.63266e-06
2.63266e-06
2.65096e-06
2.63924e-06
2.64012e-06
2.63268e-06
2.63267e-06
2.63267e-06
2.63267e-06
2.63266e-06
2.63267e-06
2.65366e-06
2.64529e-06
2.64721e-06
2.65069e-06
2.63268e-06
2.63267e-06
2.63266e-06
2.63266e-06
2.65881e-06
2.64921e-06
2.64595e-06
2.64571e-06
2.64321e-06
2.65443e-06
2.65241e-06
2.65102e-06
2.65381e-06
2.64978e-06
2.65231e-06
2.64725e-06
2.64454e-06
2.63932e-06
2.64537e-06
2.6462e-06
2.61152e-06
2.61213e-06
2.61045e-06
2.60853e-06
2.60769e-06
2.6074e-06
2.60867e-06
2.61566e-06
2.61424e-06
2.61061e-06
2.60714e-06
2.60117e-06
2.60119e-06
2.6012e-06
2.6012e-06
2.61924e-06
2.61176e-06
2.6085e-06
2.60121e-06
2.60119e-06
2.6012e-06
2.6012e-06
2.60121e-06
2.60121e-06
2.6229e-06
2.61585e-06
2.61158e-06
2.60779e-06
2.6012e-06
2.6012e-06
2.60121e-06
2.60121e-06
2.60122e-06
2.60122e-06
2.62089e-06
2.61306e-06
2.61228e-06
2.60731e-06
2.60124e-06
2.60123e-06
2.60123e-06
2.60123e-06
2.60123e-06
2.60123e-06
2.61951e-06
2.60779e-06
2.60893e-06
2.60126e-06
2.60126e-06
2.60125e-06
2.60124e-06
2.60124e-06
2.60123e-06
2.62223e-06
2.61386e-06
2.61587e-06
2.61937e-06
2.60128e-06
2.60127e-06
2.60125e-06
2.60124e-06
2.62743e-06
2.61779e-06
2.61452e-06
2.61435e-06
2.61184e-06
2.62302e-06
2.62099e-06
2.61963e-06
2.62239e-06
2.61836e-06
2.62089e-06
2.61584e-06
2.61312e-06
2.60793e-06
2.61394e-06
2.61478e-06
2.58007e-06
2.58067e-06
2.57893e-06
2.57708e-06
2.57621e-06
2.57594e-06
2.57723e-06
2.58422e-06
2.5828e-06
2.57915e-06
2.57568e-06
2.56972e-06
2.56974e-06
2.56975e-06
2.56975e-06
2.5878e-06
2.58032e-06
2.57704e-06
2.56975e-06
2.56973e-06
2.56975e-06
2.56976e-06
2.56976e-06
2.56977e-06
2.59148e-06
2.58442e-06
2.57984e-06
2.57637e-06
2.56977e-06
2.56976e-06
2.56977e-06
2.56977e-06
2.56977e-06
2.56978e-06
2.58948e-06
2.58165e-06
2.58084e-06
2.57591e-06
2.5698e-06
2.5698e-06
2.56979e-06
2.56978e-06
2.56978e-06
2.56978e-06
2.58808e-06
2.57636e-06
2.57735e-06
2.5698e-06
2.56982e-06
2.56981e-06
2.5698e-06
2.56979e-06
2.56978e-06
2.59076e-06
2.58239e-06
2.58443e-06
2.5879e-06
2.56984e-06
2.56982e-06
2.5698e-06
2.56979e-06
2.59596e-06
2.58633e-06
2.58306e-06
2.58294e-06
2.58049e-06
2.59164e-06
2.58963e-06
2.58822e-06
2.59097e-06
2.58692e-06
2.58945e-06
2.58443e-06
2.58174e-06
2.57647e-06
2.58251e-06
2.58334e-06
2.54864e-06
2.54922e-06
2.54753e-06
2.54564e-06
2.54479e-06
2.54452e-06
2.54577e-06
2.55276e-06
2.55135e-06
2.54778e-06
2.54424e-06
2.5383e-06
2.53831e-06
2.53831e-06
2.53831e-06
2.55635e-06
2.54887e-06
2.54557e-06
2.53831e-06
2.53831e-06
2.53832e-06
2.53832e-06
2.53832e-06
2.53833e-06
2.56003e-06
2.55298e-06
2.54844e-06
2.54492e-06
2.53832e-06
2.53833e-06
2.53833e-06
2.53833e-06
2.53833e-06
2.53833e-06
2.55803e-06
2.55021e-06
2.54911e-06
2.54452e-06
2.53834e-06
2.53834e-06
2.53834e-06
2.53833e-06
2.53833e-06
2.53834e-06
2.55663e-06
2.54491e-06
2.54585e-06
2.53834e-06
2.53836e-06
2.53835e-06
2.53834e-06
2.53834e-06
2.53834e-06
2.55932e-06
2.55094e-06
2.55294e-06
2.5565e-06
2.53837e-06
2.53835e-06
2.53834e-06
2.53833e-06
2.56451e-06
2.55489e-06
2.55161e-06
2.55148e-06
2.54893e-06
2.56012e-06
2.55811e-06
2.55675e-06
2.55952e-06
2.55547e-06
2.558e-06
2.55296e-06
2.55026e-06
2.54503e-06
2.55108e-06
2.5519e-06
2.5172e-06
2.51781e-06
2.51614e-06
2.51423e-06
2.5134e-06
2.51312e-06
2.51431e-06
2.52132e-06
2.51991e-06
2.51642e-06
2.51285e-06
2.50688e-06
2.50686e-06
2.50687e-06
2.50687e-06
2.52491e-06
2.51743e-06
2.51417e-06
2.50687e-06
2.50687e-06
2.50687e-06
2.50687e-06
2.50688e-06
2.50689e-06
2.52859e-06
2.52154e-06
2.51728e-06
2.51347e-06
2.50687e-06
2.50687e-06
2.50687e-06
2.50688e-06
2.50688e-06
2.50689e-06
2.52659e-06
2.51877e-06
2.51776e-06
2.51305e-06
2.50686e-06
2.50687e-06
2.50688e-06
2.50688e-06
2.50689e-06
2.5069e-06
2.5252e-06
2.51348e-06
2.51437e-06
2.50686e-06
2.50687e-06
2.50688e-06
2.50689e-06
2.50689e-06
2.5069e-06
2.52789e-06
2.5195e-06
2.52136e-06
2.52487e-06
2.50691e-06
2.50689e-06
2.50689e-06
2.50687e-06
2.53311e-06
2.52346e-06
2.52018e-06
2.51996e-06
2.51743e-06
2.52864e-06
2.52663e-06
2.52524e-06
2.52805e-06
2.52408e-06
2.52656e-06
2.52151e-06
2.51883e-06
2.51356e-06
2.51959e-06
2.52045e-06
2.48576e-06
2.48636e-06
2.48469e-06
2.48278e-06
2.48189e-06
2.48165e-06
2.48289e-06
2.48989e-06
2.48847e-06
2.48497e-06
2.48138e-06
2.47541e-06
2.47542e-06
2.47543e-06
2.47544e-06
2.49347e-06
2.48599e-06
2.4827e-06
2.47542e-06
2.47541e-06
2.47542e-06
2.47543e-06
2.47544e-06
2.47545e-06
2.49716e-06
2.4901e-06
2.48573e-06
2.48197e-06
2.47541e-06
2.47541e-06
2.47542e-06
2.47544e-06
2.47545e-06
2.47546e-06
2.49517e-06
2.48733e-06
2.48626e-06
2.48162e-06
2.4754e-06
2.47541e-06
2.47542e-06
2.47544e-06
2.47545e-06
2.47546e-06
2.49376e-06
2.48204e-06
2.48285e-06
2.47539e-06
2.4754e-06
2.47542e-06
2.47544e-06
2.47546e-06
2.47547e-06
2.49647e-06
2.48807e-06
2.48993e-06
2.49342e-06
2.47538e-06
2.47541e-06
2.47545e-06
2.47548e-06
2.50165e-06
2.49202e-06
2.48875e-06
2.48847e-06
2.4859e-06
2.4971e-06
2.49511e-06
2.49375e-06
2.49667e-06
2.49266e-06
2.49511e-06
2.48992e-06
2.48727e-06
2.48213e-06
2.48828e-06
2.48906e-06
2.45432e-06
2.45491e-06
2.45325e-06
2.45133e-06
2.45041e-06
2.4502e-06
2.45146e-06
2.45846e-06
2.45704e-06
2.45355e-06
2.44995e-06
2.44397e-06
2.44398e-06
2.44399e-06
2.444e-06
2.46203e-06
2.45455e-06
2.45127e-06
2.44396e-06
2.44397e-06
2.44398e-06
2.44399e-06
2.444e-06
2.44399e-06
2.46572e-06
2.45866e-06
2.45431e-06
2.45049e-06
2.44396e-06
2.44397e-06
2.44398e-06
2.44399e-06
2.444e-06
2.444e-06
2.46371e-06
2.45588e-06
2.45488e-06
2.4502e-06
2.44395e-06
2.44396e-06
2.44398e-06
2.44399e-06
2.44401e-06
2.44402e-06
2.46233e-06
2.45059e-06
2.45136e-06
2.44393e-06
2.44396e-06
2.44397e-06
2.444e-06
2.44402e-06
2.44401e-06
2.46504e-06
2.45664e-06
2.4584e-06
2.46194e-06
2.44397e-06
2.44397e-06
2.44399e-06
2.44398e-06
2.47025e-06
2.46062e-06
2.45734e-06
2.45696e-06
2.45438e-06
2.46564e-06
2.46362e-06
2.46236e-06
2.46515e-06
2.46122e-06
2.46368e-06
2.45851e-06
2.4558e-06
2.45057e-06
2.4568e-06
2.45761e-06
2.42288e-06
2.42348e-06
2.42183e-06
2.41991e-06
2.41906e-06
2.4188e-06
2.41999e-06
2.427e-06
2.42558e-06
2.42212e-06
2.41852e-06
2.41254e-06
2.41254e-06
2.41253e-06
2.41254e-06
2.43058e-06
2.42309e-06
2.41985e-06
2.41253e-06
2.41253e-06
2.41253e-06
2.41254e-06
2.41254e-06
2.41255e-06
2.43424e-06
2.4272e-06
2.42288e-06
2.41905e-06
2.41252e-06
2.41253e-06
2.41253e-06
2.41254e-06
2.41254e-06
2.41255e-06
2.43224e-06
2.42442e-06
2.42339e-06
2.41871e-06
2.41252e-06
2.41253e-06
2.41253e-06
2.41254e-06
2.41254e-06
2.41255e-06
2.43083e-06
2.41913e-06
2.41989e-06
2.41251e-06
2.41253e-06
2.41253e-06
2.41254e-06
2.41255e-06
2.41255e-06
2.43354e-06
2.42517e-06
2.42695e-06
2.43053e-06
2.41253e-06
2.41253e-06
2.41254e-06
2.41255e-06
2.43877e-06
2.42909e-06
2.42585e-06
2.42554e-06
2.42298e-06
2.43425e-06
2.43221e-06
2.43085e-06
2.43371e-06
2.42977e-06
2.43218e-06
2.42703e-06
2.42435e-06
2.4191e-06
2.42531e-06
2.42612e-06
2.39142e-06
2.39202e-06
2.39037e-06
2.38844e-06
2.38751e-06
2.3873e-06
2.38855e-06
2.39554e-06
2.39412e-06
2.39067e-06
2.38707e-06
2.38108e-06
2.38108e-06
2.38108e-06
2.38108e-06
2.39912e-06
2.39163e-06
2.38839e-06
2.38109e-06
2.38108e-06
2.38108e-06
2.38108e-06
2.38108e-06
2.38108e-06
2.40277e-06
2.39574e-06
2.39143e-06
2.38759e-06
2.3811e-06
2.38109e-06
2.38108e-06
2.38108e-06
2.38107e-06
2.38107e-06
2.40077e-06
2.39295e-06
2.39199e-06
2.38733e-06
2.38111e-06
2.3811e-06
2.38108e-06
2.38107e-06
2.38106e-06
2.38106e-06
2.39935e-06
2.38764e-06
2.38854e-06
2.38111e-06
2.38111e-06
2.38108e-06
2.38105e-06
2.38104e-06
2.38104e-06
2.40205e-06
2.39367e-06
2.39556e-06
2.39915e-06
2.38112e-06
2.38108e-06
2.38104e-06
2.38103e-06
2.4072e-06
2.39759e-06
2.39433e-06
2.39417e-06
2.39164e-06
2.40291e-06
2.40117e-06
2.39935e-06
2.40221e-06
2.39814e-06
2.40065e-06
2.39584e-06
2.3931e-06
2.38766e-06
2.39371e-06
2.39454e-06
2.36001e-06
2.36056e-06
2.35892e-06
2.357e-06
2.35613e-06
2.35586e-06
2.35708e-06
2.36408e-06
2.36266e-06
2.35922e-06
2.35563e-06
2.34964e-06
2.34964e-06
2.34964e-06
2.34964e-06
2.36766e-06
2.36018e-06
2.35696e-06
2.34964e-06
2.34964e-06
2.34964e-06
2.34964e-06
2.34964e-06
2.34963e-06
2.3713e-06
2.36427e-06
2.36e-06
2.35622e-06
2.34965e-06
2.34964e-06
2.34964e-06
2.34964e-06
2.34963e-06
2.34963e-06
2.36929e-06
2.36147e-06
2.36058e-06
2.35596e-06
2.34965e-06
2.34965e-06
2.34964e-06
2.34964e-06
2.34963e-06
2.34963e-06
2.36791e-06
2.3562e-06
2.35709e-06
2.34966e-06
2.34966e-06
2.34965e-06
2.34963e-06
2.34963e-06
2.34963e-06
2.37063e-06
2.36224e-06
2.36413e-06
2.36769e-06
2.34967e-06
2.34966e-06
2.34963e-06
2.34962e-06
2.37576e-06
2.36614e-06
2.36289e-06
2.36273e-06
2.36017e-06
2.37141e-06
2.36959e-06
2.36801e-06
2.37075e-06
2.36665e-06
2.36918e-06
2.36434e-06
2.36154e-06
2.35642e-06
2.36221e-06
2.36292e-06
2.32853e-06
2.32905e-06
2.32748e-06
2.32556e-06
2.32464e-06
2.32447e-06
2.32565e-06
2.33267e-06
2.33124e-06
2.32778e-06
2.32418e-06
2.3182e-06
2.3182e-06
2.31821e-06
2.31821e-06
2.33624e-06
2.32875e-06
2.32552e-06
2.3182e-06
2.3182e-06
2.3182e-06
2.3182e-06
2.31821e-06
2.31821e-06
2.33987e-06
2.33284e-06
2.32854e-06
2.32475e-06
2.3182e-06
2.3182e-06
2.3182e-06
2.31821e-06
2.31821e-06
2.31821e-06
2.33788e-06
2.33006e-06
2.32914e-06
2.32445e-06
2.31819e-06
2.31819e-06
2.3182e-06
2.31821e-06
2.31822e-06
2.31822e-06
2.3365e-06
2.3248e-06
2.3256e-06
2.31818e-06
2.31818e-06
2.31819e-06
2.31821e-06
2.31823e-06
2.31824e-06
2.33924e-06
2.33084e-06
2.3327e-06
2.33621e-06
2.31817e-06
2.31818e-06
2.31821e-06
2.31824e-06
2.34442e-06
2.33478e-06
2.33149e-06
2.33125e-06
2.32866e-06
2.33987e-06
2.3378e-06
2.33633e-06
2.33945e-06
2.33541e-06
2.33783e-06
2.33279e-06
2.33004e-06
2.32466e-06
2.33098e-06
2.33169e-06
2.29711e-06
2.29768e-06
2.29604e-06
2.29414e-06
2.29326e-06
2.29301e-06
2.29419e-06
2.30122e-06
2.2998e-06
2.29635e-06
2.29275e-06
2.28677e-06
2.28677e-06
2.28677e-06
2.28677e-06
2.3048e-06
2.29732e-06
2.29408e-06
2.28677e-06
2.28677e-06
2.28677e-06
2.28677e-06
2.28677e-06
2.28679e-06
2.30846e-06
2.30142e-06
2.29711e-06
2.29329e-06
2.28677e-06
2.28677e-06
2.28677e-06
2.28677e-06
2.28677e-06
2.28677e-06
2.30647e-06
2.29865e-06
2.29766e-06
2.29303e-06
2.28676e-06
2.28676e-06
2.28677e-06
2.28677e-06
2.28677e-06
2.28677e-06
2.30506e-06
2.29335e-06
2.29417e-06
2.28674e-06
2.28675e-06
2.28676e-06
2.28678e-06
2.28678e-06
2.28678e-06
2.30777e-06
2.29938e-06
2.30123e-06
2.30478e-06
2.28674e-06
2.28676e-06
2.28678e-06
2.2868e-06
2.31294e-06
2.30333e-06
2.30004e-06
2.29979e-06
2.29725e-06
2.30847e-06
2.30646e-06
2.30505e-06
2.30796e-06
2.30395e-06
2.30639e-06
2.30123e-06
2.29859e-06
2.2934e-06
2.29952e-06
2.30031e-06
2.26574e-06
2.26627e-06
2.26462e-06
2.26271e-06
2.26183e-06
2.26158e-06
2.26277e-06
2.26974e-06
2.26833e-06
2.26492e-06
2.26133e-06
2.25533e-06
2.25532e-06
2.25532e-06
2.25532e-06
2.27331e-06
2.26585e-06
2.26265e-06
2.25533e-06
2.25533e-06
2.25532e-06
2.25531e-06
2.25531e-06
2.2553e-06
2.27701e-06
2.26996e-06
2.26569e-06
2.2618e-06
2.25534e-06
2.25533e-06
2.25532e-06
2.25531e-06
2.2553e-06
2.2553e-06
2.275e-06
2.26718e-06
2.26622e-06
2.26155e-06
2.25535e-06
2.25534e-06
2.25532e-06
2.2553e-06
2.25529e-06
2.25528e-06
2.27357e-06
2.26187e-06
2.26279e-06
2.25537e-06
2.25535e-06
2.25531e-06
2.25529e-06
2.25527e-06
2.25526e-06
2.27626e-06
2.26788e-06
2.26983e-06
2.27336e-06
2.25534e-06
2.25531e-06
2.25528e-06
2.25528e-06
2.28142e-06
2.2718e-06
2.26854e-06
2.26842e-06
2.26587e-06
2.27712e-06
2.27532e-06
2.27362e-06
2.27646e-06
2.27237e-06
2.27486e-06
2.27004e-06
2.26728e-06
2.26195e-06
2.26798e-06
2.26872e-06
2.2343e-06
2.23484e-06
2.23317e-06
2.23127e-06
2.23046e-06
2.23019e-06
2.23134e-06
2.23831e-06
2.23689e-06
2.23347e-06
2.22987e-06
2.22387e-06
2.22387e-06
2.22387e-06
2.22386e-06
2.24186e-06
2.2344e-06
2.2312e-06
2.22389e-06
2.22388e-06
2.22387e-06
2.22386e-06
2.22386e-06
2.22385e-06
2.24555e-06
2.2385e-06
2.23423e-06
2.23046e-06
2.22389e-06
2.22388e-06
2.22387e-06
2.22386e-06
2.22385e-06
2.22384e-06
2.24354e-06
2.23571e-06
2.23481e-06
2.2302e-06
2.2239e-06
2.22389e-06
2.22388e-06
2.22386e-06
2.22384e-06
2.22382e-06
2.24212e-06
2.2304e-06
2.23136e-06
2.22392e-06
2.2239e-06
2.22389e-06
2.22386e-06
2.22384e-06
2.22383e-06
2.24479e-06
2.23641e-06
2.23844e-06
2.24199e-06
2.2239e-06
2.22389e-06
2.22386e-06
2.22385e-06
2.24994e-06
2.2403e-06
2.23707e-06
2.23703e-06
2.23445e-06
2.24568e-06
2.24364e-06
2.24225e-06
2.24496e-06
2.24082e-06
2.24335e-06
2.23862e-06
2.23578e-06
2.2306e-06
2.23645e-06
2.23713e-06
2.20274e-06
2.20341e-06
2.20172e-06
2.1998e-06
2.199e-06
2.19866e-06
2.19988e-06
2.2069e-06
2.20546e-06
2.20202e-06
2.19843e-06
2.19244e-06
2.19243e-06
2.19242e-06
2.19241e-06
2.21046e-06
2.20296e-06
2.19975e-06
2.19242e-06
2.19243e-06
2.19242e-06
2.19241e-06
2.19241e-06
2.1924e-06
2.21411e-06
2.20705e-06
2.20281e-06
2.1989e-06
2.19243e-06
2.19243e-06
2.19242e-06
2.19241e-06
2.1924e-06
2.19239e-06
2.21209e-06
2.20426e-06
2.20337e-06
2.19865e-06
2.19244e-06
2.19243e-06
2.19242e-06
2.19241e-06
2.1924e-06
2.19239e-06
2.21069e-06
2.19896e-06
2.19993e-06
2.19246e-06
2.19244e-06
2.19243e-06
2.19241e-06
2.19239e-06
2.19238e-06
2.21338e-06
2.20498e-06
2.20697e-06
2.2105e-06
2.19244e-06
2.19243e-06
2.19241e-06
2.19239e-06
2.21853e-06
2.2089e-06
2.20565e-06
2.20555e-06
2.20296e-06
2.21416e-06
2.21232e-06
2.21079e-06
2.21352e-06
2.20943e-06
2.21197e-06
2.20706e-06
2.20438e-06
2.19911e-06
2.20497e-06
2.2058e-06
2.17138e-06
2.17194e-06
2.1703e-06
2.16837e-06
2.16754e-06
2.16727e-06
2.16841e-06
2.17542e-06
2.174e-06
2.17059e-06
2.16701e-06
2.16099e-06
2.16098e-06
2.16098e-06
2.16097e-06
2.179e-06
2.17151e-06
2.16832e-06
2.16099e-06
2.16098e-06
2.16098e-06
2.16097e-06
2.16097e-06
2.16096e-06
2.18266e-06
2.17561e-06
2.17133e-06
2.16754e-06
2.16098e-06
2.16098e-06
2.16097e-06
2.16097e-06
2.16096e-06
2.16096e-06
2.18064e-06
2.17282e-06
2.17189e-06
2.16717e-06
2.16098e-06
2.16097e-06
2.16097e-06
2.16097e-06
2.16096e-06
2.16095e-06
2.17923e-06
2.16751e-06
2.16839e-06
2.16098e-06
2.16097e-06
2.16097e-06
2.16096e-06
2.16096e-06
2.16096e-06
2.18195e-06
2.17356e-06
2.17547e-06
2.17893e-06
2.16096e-06
2.16096e-06
2.16097e-06
2.16098e-06
2.18712e-06
2.17746e-06
2.17421e-06
2.17405e-06
2.17148e-06
2.18268e-06
2.18069e-06
2.17928e-06
2.18208e-06
2.178e-06
2.18056e-06
2.17557e-06
2.17284e-06
2.16757e-06
2.17365e-06
2.17446e-06
2.13992e-06
2.14048e-06
2.13888e-06
2.13696e-06
2.13607e-06
2.13576e-06
2.13702e-06
2.14399e-06
2.14257e-06
2.13914e-06
2.13557e-06
2.12956e-06
2.12956e-06
2.12954e-06
2.12954e-06
2.14757e-06
2.14007e-06
2.1369e-06
2.12954e-06
2.12955e-06
2.12954e-06
2.12954e-06
2.12953e-06
2.12952e-06
2.15121e-06
2.14416e-06
2.13998e-06
2.13617e-06
2.12953e-06
2.12953e-06
2.12953e-06
2.12953e-06
2.12952e-06
2.12952e-06
2.14919e-06
2.14137e-06
2.14044e-06
2.13569e-06
2.12951e-06
2.12951e-06
2.12951e-06
2.12952e-06
2.12952e-06
2.12952e-06
2.14781e-06
2.13609e-06
2.13685e-06
2.12951e-06
2.12949e-06
2.1295e-06
2.12951e-06
2.12951e-06
2.12951e-06
2.15051e-06
2.14214e-06
2.14393e-06
2.14747e-06
2.12948e-06
2.1295e-06
2.1295e-06
2.12951e-06
2.15568e-06
2.14606e-06
2.1428e-06
2.14253e-06
2.13994e-06
2.15118e-06
2.1492e-06
2.14783e-06
2.15063e-06
2.14663e-06
2.14916e-06
2.14405e-06
2.14135e-06
2.13616e-06
2.14222e-06
2.14305e-06
2.10847e-06
2.10906e-06
2.10742e-06
2.10552e-06
2.10462e-06
2.10434e-06
2.10558e-06
2.11256e-06
2.11113e-06
2.10771e-06
2.10414e-06
2.09812e-06
2.09812e-06
2.09811e-06
2.0981e-06
2.11614e-06
2.10864e-06
2.10553e-06
2.09809e-06
2.09811e-06
2.0981e-06
2.0981e-06
2.09809e-06
2.09809e-06
2.11979e-06
2.11273e-06
2.10881e-06
2.10472e-06
2.09809e-06
2.09809e-06
2.09809e-06
2.09808e-06
2.09808e-06
2.09808e-06
2.11777e-06
2.10995e-06
2.10912e-06
2.10424e-06
2.09807e-06
2.09806e-06
2.09807e-06
2.09807e-06
2.09807e-06
2.09807e-06
2.11637e-06
2.10466e-06
2.10531e-06
2.09808e-06
2.09803e-06
2.09805e-06
2.09806e-06
2.09807e-06
2.09807e-06
2.11904e-06
2.11068e-06
2.11242e-06
2.11597e-06
2.09802e-06
2.09803e-06
2.09805e-06
2.09806e-06
2.12423e-06
2.11461e-06
2.11134e-06
2.11104e-06
2.10842e-06
2.1197e-06
2.11774e-06
2.11641e-06
2.11918e-06
2.11517e-06
2.11771e-06
2.11258e-06
2.1099e-06
2.10469e-06
2.11074e-06
2.11158e-06
2.07703e-06
2.0776e-06
2.07599e-06
2.07405e-06
2.07318e-06
2.07289e-06
2.07412e-06
2.08111e-06
2.07969e-06
2.07621e-06
2.07268e-06
2.06668e-06
2.06667e-06
2.06665e-06
2.06665e-06
2.08469e-06
2.0772e-06
2.07394e-06
2.06666e-06
2.06666e-06
2.06665e-06
2.06665e-06
2.06664e-06
2.06664e-06
2.08835e-06
2.0813e-06
2.07675e-06
2.07335e-06
2.06665e-06
2.06665e-06
2.06664e-06
2.06664e-06
2.06663e-06
2.06663e-06
2.08633e-06
2.07851e-06
2.07751e-06
2.0728e-06
2.06662e-06
2.06662e-06
2.06662e-06
2.06663e-06
2.06663e-06
2.06663e-06
2.08492e-06
2.0732e-06
2.0739e-06
2.0666e-06
2.0666e-06
2.06661e-06
2.06662e-06
2.06662e-06
2.06662e-06
2.0876e-06
2.07923e-06
2.08098e-06
2.08455e-06
2.06658e-06
2.0666e-06
2.06661e-06
2.06662e-06
2.09277e-06
2.08316e-06
2.07991e-06
2.07955e-06
2.0771e-06
2.08832e-06
2.08629e-06
2.08494e-06
2.08777e-06
2.08373e-06
2.08627e-06
2.08114e-06
2.07843e-06
2.07321e-06
2.07931e-06
2.08014e-06
2.04555e-06
2.04615e-06
2.04451e-06
2.04257e-06
2.04171e-06
2.04143e-06
2.04267e-06
2.04966e-06
2.04823e-06
2.04468e-06
2.04121e-06
2.03521e-06
2.0352e-06
2.0352e-06
2.0352e-06
2.05324e-06
2.04575e-06
2.04254e-06
2.0352e-06
2.0352e-06
2.0352e-06
2.03519e-06
2.03519e-06
2.03519e-06
2.0569e-06
2.04984e-06
2.04569e-06
2.04176e-06
2.03519e-06
2.03519e-06
2.03519e-06
2.03519e-06
2.03519e-06
2.03518e-06
2.05486e-06
2.04705e-06
2.04604e-06
2.04137e-06
2.03519e-06
2.03519e-06
2.03519e-06
2.03519e-06
2.03519e-06
2.03519e-06
2.05349e-06
2.04177e-06
2.04259e-06
2.03519e-06
2.03518e-06
2.03518e-06
2.03518e-06
2.03518e-06
2.03519e-06
2.05618e-06
2.04781e-06
2.04965e-06
2.05317e-06
2.03517e-06
2.03518e-06
2.03518e-06
2.03518e-06
2.06133e-06
2.05172e-06
2.04846e-06
2.04818e-06
2.04568e-06
2.0569e-06
2.05489e-06
2.05354e-06
2.05632e-06
2.05229e-06
2.05483e-06
2.04972e-06
2.04703e-06
2.04182e-06
2.04788e-06
2.0487e-06
2.01409e-06
2.01468e-06
2.01304e-06
2.0111e-06
2.01024e-06
2.00996e-06
2.01124e-06
2.01822e-06
2.0168e-06
2.01321e-06
2.00975e-06
2.00375e-06
2.00375e-06
2.00375e-06
2.00375e-06
2.0218e-06
2.01431e-06
2.01105e-06
2.00375e-06
2.00375e-06
2.00375e-06
2.00375e-06
2.00375e-06
2.00375e-06
2.02546e-06
2.0184e-06
2.01413e-06
2.01019e-06
2.00375e-06
2.00375e-06
2.00375e-06
2.00375e-06
2.00375e-06
2.00375e-06
2.02344e-06
2.0156e-06
2.0146e-06
2.01e-06
2.00374e-06
2.00375e-06
2.00375e-06
2.00375e-06
2.00375e-06
2.00375e-06
2.02205e-06
2.01034e-06
2.01117e-06
2.00375e-06
2.00374e-06
2.00374e-06
2.00374e-06
2.00375e-06
2.00375e-06
2.02473e-06
2.01636e-06
2.01824e-06
2.02172e-06
2.00374e-06
2.00374e-06
2.00374e-06
2.00375e-06
2.0299e-06
2.02028e-06
2.01702e-06
2.01676e-06
2.01427e-06
2.02544e-06
2.02344e-06