/*--------------------------------*- C++ -*----------------------------------*\
| =========                 |                                                 |
| \\      /  F ield         | OpenFOAM: The Open Source CFD Toolbox           |
|  \\    /   O peration     | Version:  v2012                                 |
|   \\  /    A nd           | Website:  www.openfoam.com                      |
|    \\/     M anipulation  |                                                 |
\*---------------------------------------------------------------------------*/
FoamFile
{
    version     2.0;
    format      ascii;
    class       volScalarField;
    location    "2";
    object      p;
}
// * * * * * * * * * * * * * * * * * * * * * * * * * * * * * * * * * * * * * //

dimensions      [0 2 -2 0 0 0 0];


internalField   nonuniform List<scalar> 
244288
(
1.70806e-06
1.7083e-06
1.70835e-06
1.70817e-06
1.70805e-06
1.7082e-06
1.70836e-06
1.7083e-06
1.70826e-06
1.70814e-06
1.70789e-06
1.70778e-06
1.70792e-06
1.70816e-06
1.70825e-06
1.70835e-06
1.70814e-06
1.70775e-06
1.70736e-06
1.70722e-06
1.7074e-06
1.7078e-06
1.70817e-06
1.70838e-06
1.70817e-06
1.70789e-06
1.70736e-06
1.7069e-06
1.70674e-06
1.70694e-06
1.70743e-06
1.70794e-06
1.70818e-06
1.70806e-06
1.70805e-06
1.70778e-06
1.70722e-06
1.70674e-06
1.70657e-06
1.70678e-06
1.70729e-06
1.70784e-06
1.70805e-06
1.7082e-06
1.70792e-06
1.7074e-06
1.70694e-06
1.70678e-06
1.70699e-06
1.70747e-06
1.70797e-06
1.70822e-06
1.70836e-06
1.70816e-06
1.7078e-06
1.70743e-06
1.70729e-06
1.70747e-06
1.70785e-06
1.70819e-06
1.70838e-06
1.70825e-06
1.70817e-06
1.70794e-06
1.70784e-06
1.70797e-06
1.70819e-06
1.70824e-06
1.70838e-06
1.70818e-06
1.70805e-06
1.70821e-06
1.70838e-06
1.67681e-06
1.67628e-06
1.67593e-06
1.67453e-06
1.67444e-06
1.67444e-06
1.67443e-06
1.67578e-06
1.67595e-06
1.67593e-06
1.67406e-06
1.67148e-06
1.67152e-06
1.67152e-06
1.67148e-06
1.67375e-06
1.67442e-06
1.67452e-06
1.67147e-06
1.6716e-06
1.67167e-06
1.67167e-06
1.6716e-06
1.67148e-06
1.67405e-06
1.6761e-06
1.67681e-06
1.67443e-06
1.67152e-06
1.67167e-06
1.67174e-06
1.67174e-06
1.67167e-06
1.67152e-06
1.67395e-06
1.67596e-06
1.67628e-06
1.67444e-06
1.67152e-06
1.67167e-06
1.67174e-06
1.67174e-06
1.67167e-06
1.67152e-06
1.67395e-06
1.67474e-06
1.67444e-06
1.67147e-06
1.6716e-06
1.67167e-06
1.67167e-06
1.6716e-06
1.67148e-06
1.67396e-06
1.67601e-06
1.67578e-06
1.67375e-06
1.67148e-06
1.67152e-06
1.67152e-06
1.67147e-06
1.67335e-06
1.67425e-06
1.67614e-06
1.67595e-06
1.67442e-06
1.67405e-06
1.67395e-06
1.67394e-06
1.67396e-06
1.67425e-06
1.67564e-06
1.67609e-06
1.67596e-06
1.67474e-06
1.67601e-06
1.67614e-06
1.65912e-06
1.65901e-06
1.65886e-06
1.65715e-06
1.65704e-06
1.65703e-06
1.65708e-06
1.65863e-06
1.65892e-06
1.65886e-06
1.65678e-06
1.65383e-06
1.65384e-06
1.65384e-06
1.65383e-06
1.65652e-06
1.65724e-06
1.65715e-06
1.65383e-06
1.65383e-06
1.65384e-06
1.65384e-06
1.65383e-06
1.65384e-06
1.65685e-06
1.65885e-06
1.65913e-06
1.65704e-06
1.65384e-06
1.65384e-06
1.65384e-06
1.65384e-06
1.65384e-06
1.65384e-06
1.65664e-06
1.6586e-06
1.65898e-06
1.65703e-06
1.65384e-06
1.65384e-06
1.65384e-06
1.65384e-06
1.65384e-06
1.65384e-06
1.65659e-06
1.65738e-06
1.65708e-06
1.65383e-06
1.65383e-06
1.65384e-06
1.65384e-06
1.65383e-06
1.65383e-06
1.65671e-06
1.6587e-06
1.65863e-06
1.65652e-06
1.65384e-06
1.65384e-06
1.65384e-06
1.65384e-06
1.65612e-06
1.65707e-06
1.65893e-06
1.65892e-06
1.65724e-06
1.65685e-06
1.65664e-06
1.65659e-06
1.65671e-06
1.65708e-06
1.65851e-06
1.65885e-06
1.6586e-06
1.65738e-06
1.6587e-06
1.65893e-06
1.64148e-06
1.64137e-06
1.64124e-06
1.6395e-06
1.63938e-06
1.63937e-06
1.63943e-06
1.64101e-06
1.6413e-06
1.64124e-06
1.63913e-06
1.63607e-06
1.63607e-06
1.63607e-06
1.63607e-06
1.63892e-06
1.63962e-06
1.6395e-06
1.63607e-06
1.63607e-06
1.63607e-06
1.63607e-06
1.63607e-06
1.63607e-06
1.63927e-06
1.64122e-06
1.64148e-06
1.63938e-06
1.63607e-06
1.63607e-06
1.63608e-06
1.63608e-06
1.63607e-06
1.63607e-06
1.63905e-06
1.64095e-06
1.64136e-06
1.63937e-06
1.63607e-06
1.63607e-06
1.63608e-06
1.63608e-06
1.63607e-06
1.63607e-06
1.639e-06
1.63974e-06
1.63942e-06
1.63607e-06
1.63607e-06
1.63607e-06
1.63607e-06
1.63607e-06
1.63607e-06
1.63913e-06
1.64106e-06
1.64101e-06
1.63892e-06
1.63607e-06
1.63607e-06
1.63607e-06
1.63607e-06
1.63856e-06
1.63947e-06
1.6413e-06
1.6413e-06
1.63962e-06
1.63927e-06
1.63905e-06
1.639e-06
1.63914e-06
1.63948e-06
1.64093e-06
1.64122e-06
1.64095e-06
1.63974e-06
1.64106e-06
1.64131e-06
1.62389e-06
1.6238e-06
1.62364e-06
1.62189e-06
1.62177e-06
1.62176e-06
1.62182e-06
1.62342e-06
1.6237e-06
1.62364e-06
1.62152e-06
1.6184e-06
1.6184e-06
1.6184e-06
1.6184e-06
1.62132e-06
1.62203e-06
1.62189e-06
1.6184e-06
1.6184e-06
1.61841e-06
1.61841e-06
1.61841e-06
1.6184e-06
1.62169e-06
1.62363e-06
1.6239e-06
1.62177e-06
1.6184e-06
1.61841e-06
1.61841e-06
1.61841e-06
1.61841e-06
1.6184e-06
1.62148e-06
1.62336e-06
1.62381e-06
1.62176e-06
1.6184e-06
1.61841e-06
1.61841e-06
1.61841e-06
1.61841e-06
1.6184e-06
1.62143e-06
1.62213e-06
1.62182e-06
1.61841e-06
1.61841e-06
1.61841e-06
1.61841e-06
1.61841e-06
1.6184e-06
1.62156e-06
1.62347e-06
1.62342e-06
1.62132e-06
1.61841e-06
1.61841e-06
1.6184e-06
1.61841e-06
1.62099e-06
1.62188e-06
1.62372e-06
1.6237e-06
1.62203e-06
1.62169e-06
1.62148e-06
1.62143e-06
1.62156e-06
1.62189e-06
1.62335e-06
1.62363e-06
1.62336e-06
1.62213e-06
1.62347e-06
1.62372e-06
1.60627e-06
1.60618e-06
1.60602e-06
1.60427e-06
1.60414e-06
1.60413e-06
1.6042e-06
1.6058e-06
1.60609e-06
1.60602e-06
1.60389e-06
1.60076e-06
1.60076e-06
1.60076e-06
1.60076e-06
1.60369e-06
1.60441e-06
1.60427e-06
1.60076e-06
1.60076e-06
1.60076e-06
1.60076e-06
1.60076e-06
1.60076e-06
1.60407e-06
1.60601e-06
1.60627e-06
1.60414e-06
1.60076e-06
1.60076e-06
1.60076e-06
1.60076e-06
1.60076e-06
1.60076e-06
1.60387e-06
1.60574e-06
1.60617e-06
1.60413e-06
1.60076e-06
1.60076e-06
1.60076e-06
1.60076e-06
1.60076e-06
1.60076e-06
1.60381e-06
1.60451e-06
1.6042e-06
1.60076e-06
1.60076e-06
1.60076e-06
1.60076e-06
1.60076e-06
1.60076e-06
1.60395e-06
1.60585e-06
1.6058e-06
1.6037e-06
1.60076e-06
1.60076e-06
1.60076e-06
1.60076e-06
1.60338e-06
1.60426e-06
1.6061e-06
1.60609e-06
1.60441e-06
1.60407e-06
1.60387e-06
1.60381e-06
1.60395e-06
1.60428e-06
1.60574e-06
1.60601e-06
1.60574e-06
1.6045e-06
1.60585e-06
1.6061e-06
1.58864e-06
1.58855e-06
1.5884e-06
1.58664e-06
1.58651e-06
1.5865e-06
1.58657e-06
1.58817e-06
1.58846e-06
1.58839e-06
1.58626e-06
1.58313e-06
1.58313e-06
1.58313e-06
1.58313e-06
1.58607e-06
1.58678e-06
1.58664e-06
1.58313e-06
1.58313e-06
1.58313e-06
1.58313e-06
1.58313e-06
1.58313e-06
1.58644e-06
1.58838e-06
1.58864e-06
1.58651e-06
1.58313e-06
1.58313e-06
1.58313e-06
1.58313e-06
1.58313e-06
1.58313e-06
1.58624e-06
1.58811e-06
1.58854e-06
1.5865e-06
1.58313e-06
1.58313e-06
1.58313e-06
1.58313e-06
1.58313e-06
1.58313e-06
1.58619e-06
1.58688e-06
1.58658e-06
1.58313e-06
1.58313e-06
1.58313e-06
1.58313e-06
1.58313e-06
1.58313e-06
1.58632e-06
1.58822e-06
1.58817e-06
1.58607e-06
1.58313e-06
1.58313e-06
1.58313e-06
1.58313e-06
1.58575e-06
1.58663e-06
1.58847e-06
1.58846e-06
1.58678e-06
1.58645e-06
1.58624e-06
1.58619e-06
1.58632e-06
1.58665e-06
1.5881e-06
1.58838e-06
1.58811e-06
1.58687e-06
1.58822e-06
1.58847e-06
1.57101e-06
1.57092e-06
1.57077e-06
1.56901e-06
1.56888e-06
1.56887e-06
1.56894e-06
1.57054e-06
1.57083e-06
1.57076e-06
1.56863e-06
1.56549e-06
1.56549e-06
1.56549e-06
1.56549e-06
1.56843e-06
1.56915e-06
1.56901e-06
1.56549e-06
1.56549e-06
1.56549e-06
1.56549e-06
1.56549e-06
1.56549e-06
1.56881e-06
1.57075e-06
1.57102e-06
1.56888e-06
1.56549e-06
1.56549e-06
1.56549e-06
1.56549e-06
1.56549e-06
1.56549e-06
1.56861e-06
1.57048e-06
1.57092e-06
1.56887e-06
1.56549e-06
1.56549e-06
1.56549e-06
1.56549e-06
1.56549e-06
1.56549e-06
1.56856e-06
1.56925e-06
1.56894e-06
1.56549e-06
1.56549e-06
1.56549e-06
1.56549e-06
1.56549e-06
1.56549e-06
1.56869e-06
1.57059e-06
1.57054e-06
1.56844e-06
1.56549e-06
1.56549e-06
1.56549e-06
1.56549e-06
1.56812e-06
1.569e-06
1.57084e-06
1.57083e-06
1.56915e-06
1.56881e-06
1.56861e-06
1.56856e-06
1.56869e-06
1.56902e-06
1.57048e-06
1.57075e-06
1.57048e-06
1.56925e-06
1.57059e-06
1.57084e-06
1.55338e-06
1.55329e-06
1.55314e-06
1.55138e-06
1.55125e-06
1.55124e-06
1.5513e-06
1.55291e-06
1.55319e-06
1.55313e-06
1.551e-06
1.54786e-06
1.54786e-06
1.54786e-06
1.54786e-06
1.5508e-06
1.55151e-06
1.55138e-06
1.54786e-06
1.54786e-06
1.54786e-06
1.54786e-06
1.54786e-06
1.54786e-06
1.55118e-06
1.55312e-06
1.55338e-06
1.55125e-06
1.54786e-06
1.54786e-06
1.54786e-06
1.54786e-06
1.54786e-06
1.54786e-06
1.55098e-06
1.55285e-06
1.55327e-06
1.55124e-06
1.54786e-06
1.54786e-06
1.54786e-06
1.54786e-06
1.54786e-06
1.54786e-06
1.55092e-06
1.55161e-06
1.5513e-06
1.54786e-06
1.54786e-06
1.54786e-06
1.54786e-06
1.54786e-06
1.54786e-06
1.55106e-06
1.55295e-06
1.5529e-06
1.5508e-06
1.54786e-06
1.54786e-06
1.54786e-06
1.54786e-06
1.55049e-06
1.55137e-06
1.55321e-06
1.55319e-06
1.55151e-06
1.55118e-06
1.55098e-06
1.55092e-06
1.55106e-06
1.55138e-06
1.55284e-06
1.55312e-06
1.55284e-06
1.55161e-06
1.55295e-06
1.55321e-06
1.53575e-06
1.53566e-06
1.5355e-06
1.53375e-06
1.53362e-06
1.5336e-06
1.53367e-06
1.53527e-06
1.53556e-06
1.5355e-06
1.53337e-06
1.53023e-06
1.53023e-06
1.53023e-06
1.53023e-06
1.53317e-06
1.53388e-06
1.53375e-06
1.53023e-06
1.53023e-06
1.53023e-06
1.53023e-06
1.53023e-06
1.53023e-06
1.53355e-06
1.53549e-06
1.53576e-06
1.53361e-06
1.53023e-06
1.53023e-06
1.53023e-06
1.53023e-06
1.53023e-06
1.53023e-06
1.53334e-06
1.53521e-06
1.53564e-06
1.5336e-06
1.53023e-06
1.53023e-06
1.53023e-06
1.53023e-06
1.53023e-06
1.53023e-06
1.53329e-06
1.53398e-06
1.53367e-06
1.53023e-06
1.53023e-06
1.53023e-06
1.53023e-06
1.53023e-06
1.53023e-06
1.53342e-06
1.53532e-06
1.53527e-06
1.53317e-06
1.53023e-06
1.53023e-06
1.53023e-06
1.53023e-06
1.53286e-06
1.53374e-06
1.53557e-06
1.53556e-06
1.53388e-06
1.53355e-06
1.53334e-06
1.53329e-06
1.53342e-06
1.53375e-06
1.53521e-06
1.53549e-06
1.53521e-06
1.53398e-06
1.53532e-06
1.53558e-06
1.51812e-06
1.51803e-06
1.51787e-06
1.51611e-06
1.51598e-06
1.51597e-06
1.51604e-06
1.51764e-06
1.51793e-06
1.51787e-06
1.51573e-06
1.5126e-06
1.5126e-06
1.5126e-06
1.5126e-06
1.51554e-06
1.51625e-06
1.51611e-06
1.5126e-06
1.5126e-06
1.5126e-06
1.5126e-06
1.5126e-06
1.5126e-06
1.51592e-06
1.51786e-06
1.51812e-06
1.51598e-06
1.5126e-06
1.5126e-06
1.5126e-06
1.5126e-06
1.5126e-06
1.5126e-06
1.51571e-06
1.51758e-06
1.51802e-06
1.51597e-06
1.5126e-06
1.5126e-06
1.5126e-06
1.5126e-06
1.5126e-06
1.5126e-06
1.51566e-06
1.51635e-06
1.51604e-06
1.5126e-06
1.5126e-06
1.5126e-06
1.5126e-06
1.5126e-06
1.5126e-06
1.51579e-06
1.51769e-06
1.51764e-06
1.51554e-06
1.5126e-06
1.5126e-06
1.5126e-06
1.5126e-06
1.51523e-06
1.5161e-06
1.51794e-06
1.51793e-06
1.51625e-06
1.51592e-06
1.51571e-06
1.51566e-06
1.51579e-06
1.51612e-06
1.51758e-06
1.51785e-06
1.51758e-06
1.51635e-06
1.51769e-06
1.51794e-06
1.50048e-06
1.50039e-06
1.50024e-06
1.49848e-06
1.49835e-06
1.49834e-06
1.49841e-06
1.50001e-06
1.5003e-06
1.50023e-06
1.4981e-06
1.49496e-06
1.49496e-06
1.49496e-06
1.49496e-06
1.4979e-06
1.49862e-06
1.49848e-06
1.49496e-06
1.49496e-06
1.49496e-06
1.49496e-06
1.49496e-06
1.49496e-06
1.49828e-06
1.50022e-06
1.50048e-06
1.49835e-06
1.49496e-06
1.49496e-06
1.49496e-06
1.49496e-06
1.49496e-06
1.49496e-06
1.49808e-06
1.49995e-06
1.5004e-06
1.49834e-06
1.49496e-06
1.49496e-06
1.49496e-06
1.49496e-06
1.49496e-06
1.49496e-06
1.49803e-06
1.49871e-06
1.49841e-06
1.49496e-06
1.49496e-06
1.49496e-06
1.49496e-06
1.49496e-06
1.49496e-06
1.49816e-06
1.50006e-06
1.50001e-06
1.4979e-06
1.49496e-06
1.49496e-06
1.49496e-06
1.49496e-06
1.49759e-06
1.49847e-06
1.50031e-06
1.5003e-06
1.49862e-06
1.49828e-06
1.49808e-06
1.49803e-06
1.49816e-06
1.49849e-06
1.49994e-06
1.50022e-06
1.49995e-06
1.49871e-06
1.50006e-06
1.50031e-06
1.48285e-06
1.48276e-06
1.4826e-06
1.48085e-06
1.48072e-06
1.4807e-06
1.48077e-06
1.48237e-06
1.48266e-06
1.4826e-06
1.48047e-06
1.47733e-06
1.47733e-06
1.47733e-06
1.47733e-06
1.48027e-06
1.48098e-06
1.48085e-06
1.47733e-06
1.47733e-06
1.47733e-06
1.47733e-06
1.47733e-06
1.47733e-06
1.48065e-06
1.48259e-06
1.48286e-06
1.48072e-06
1.47733e-06
1.47733e-06
1.47733e-06
1.47733e-06
1.47733e-06
1.47733e-06
1.48045e-06
1.48232e-06
1.48276e-06
1.4807e-06
1.47733e-06
1.47733e-06
1.47733e-06
1.47733e-06
1.47733e-06
1.47733e-06
1.48039e-06
1.48108e-06
1.48077e-06
1.47733e-06
1.47733e-06
1.47733e-06
1.47733e-06
1.47733e-06
1.47733e-06
1.48052e-06
1.48242e-06
1.48238e-06
1.48027e-06
1.47733e-06
1.47733e-06
1.47733e-06
1.47733e-06
1.47996e-06
1.48084e-06
1.48268e-06
1.48266e-06
1.48099e-06
1.48065e-06
1.48045e-06
1.4804e-06
1.48053e-06
1.48085e-06
1.48231e-06
1.48259e-06
1.48232e-06
1.48108e-06
1.48242e-06
1.48268e-06
1.46522e-06
1.46513e-06
1.46497e-06
1.46321e-06
1.46308e-06
1.46307e-06
1.46314e-06
1.46474e-06
1.46503e-06
1.46497e-06
1.46283e-06
1.4597e-06
1.4597e-06
1.4597e-06
1.4597e-06
1.46264e-06
1.46335e-06
1.46321e-06
1.4597e-06
1.4597e-06
1.4597e-06
1.4597e-06
1.4597e-06
1.4597e-06
1.46302e-06
1.46496e-06
1.46522e-06
1.46308e-06
1.4597e-06
1.4597e-06
1.4597e-06
1.4597e-06
1.4597e-06
1.4597e-06
1.46281e-06
1.46468e-06
1.4651e-06
1.46307e-06
1.4597e-06
1.4597e-06
1.4597e-06
1.4597e-06
1.4597e-06
1.4597e-06
1.46276e-06
1.46345e-06
1.46315e-06
1.4597e-06
1.4597e-06
1.4597e-06
1.4597e-06
1.4597e-06
1.4597e-06
1.46289e-06
1.46479e-06
1.46475e-06
1.46264e-06
1.4597e-06
1.4597e-06
1.4597e-06
1.4597e-06
1.46233e-06
1.46321e-06
1.46504e-06
1.46503e-06
1.46335e-06
1.46302e-06
1.46282e-06
1.46276e-06
1.4629e-06
1.46322e-06
1.46468e-06
1.46496e-06
1.46468e-06
1.46345e-06
1.46479e-06
1.46505e-06
1.44759e-06
1.44749e-06
1.44734e-06
1.44558e-06
1.44545e-06
1.44544e-06
1.44551e-06
1.44711e-06
1.4474e-06
1.44734e-06
1.4452e-06
1.44206e-06
1.44206e-06
1.44207e-06
1.44207e-06
1.44501e-06
1.44572e-06
1.44558e-06
1.44206e-06
1.44206e-06
1.44207e-06
1.44207e-06
1.44207e-06
1.44207e-06
1.44539e-06
1.44733e-06
1.44758e-06
1.44545e-06
1.44206e-06
1.44207e-06
1.44207e-06
1.44207e-06
1.44207e-06
1.44207e-06
1.44518e-06
1.44705e-06
1.44748e-06
1.44544e-06
1.44207e-06
1.44207e-06
1.44207e-06
1.44207e-06
1.44207e-06
1.44207e-06
1.44513e-06
1.44582e-06
1.44551e-06
1.44207e-06
1.44207e-06
1.44207e-06
1.44207e-06
1.44207e-06
1.44207e-06
1.44526e-06
1.44716e-06
1.44711e-06
1.44501e-06
1.44207e-06
1.44207e-06
1.44207e-06
1.44207e-06
1.4447e-06
1.44557e-06
1.44741e-06
1.4474e-06
1.44572e-06
1.44539e-06
1.44518e-06
1.44513e-06
1.44526e-06
1.44559e-06
1.44705e-06
1.44733e-06
1.44705e-06
1.44582e-06
1.44716e-06
1.44741e-06
1.42995e-06
1.42986e-06
1.42971e-06
1.42795e-06
1.42782e-06
1.42781e-06
1.42788e-06
1.42948e-06
1.42977e-06
1.4297e-06
1.42757e-06
1.42443e-06
1.42443e-06
1.42443e-06
1.42443e-06
1.42737e-06
1.42809e-06
1.42795e-06
1.42443e-06
1.42443e-06
1.42443e-06
1.42443e-06
1.42443e-06
1.42443e-06
1.42775e-06
1.42969e-06
1.42995e-06
1.42782e-06
1.42443e-06
1.42443e-06
1.42443e-06
1.42443e-06
1.42443e-06
1.42443e-06
1.42755e-06
1.42942e-06
1.42986e-06
1.42781e-06
1.42443e-06
1.42443e-06
1.42443e-06
1.42443e-06
1.42443e-06
1.42443e-06
1.4275e-06
1.42818e-06
1.42788e-06
1.42443e-06
1.42443e-06
1.42443e-06
1.42443e-06
1.42443e-06
1.42443e-06
1.42763e-06
1.42953e-06
1.42948e-06
1.42737e-06
1.42443e-06
1.42443e-06
1.42443e-06
1.42443e-06
1.42706e-06
1.42794e-06
1.42978e-06
1.42977e-06
1.42809e-06
1.42775e-06
1.42755e-06
1.4275e-06
1.42763e-06
1.42796e-06
1.42942e-06
1.42969e-06
1.42942e-06
1.42818e-06
1.42953e-06
1.42978e-06
1.41232e-06
1.41223e-06
1.41208e-06
1.41032e-06
1.41019e-06
1.41017e-06
1.41024e-06
1.41184e-06
1.41213e-06
1.41207e-06
1.40994e-06
1.4068e-06
1.4068e-06
1.4068e-06
1.4068e-06
1.40974e-06
1.41045e-06
1.41032e-06
1.4068e-06
1.4068e-06
1.4068e-06
1.4068e-06
1.4068e-06
1.4068e-06
1.41012e-06
1.41206e-06
1.41232e-06
1.41019e-06
1.4068e-06
1.4068e-06
1.4068e-06
1.4068e-06
1.4068e-06
1.4068e-06
1.40992e-06
1.41179e-06
1.41223e-06
1.41017e-06
1.4068e-06
1.4068e-06
1.4068e-06
1.4068e-06
1.4068e-06
1.4068e-06
1.40986e-06
1.41055e-06
1.41024e-06
1.4068e-06
1.4068e-06
1.4068e-06
1.4068e-06
1.4068e-06
1.4068e-06
1.40999e-06
1.41189e-06
1.41184e-06
1.40974e-06
1.4068e-06
1.4068e-06
1.4068e-06
1.4068e-06
1.40943e-06
1.41031e-06
1.41215e-06
1.41213e-06
1.41045e-06
1.41012e-06
1.40992e-06
1.40986e-06
1.41e-06
1.41032e-06
1.41178e-06
1.41206e-06
1.41179e-06
1.41055e-06
1.41189e-06
1.41215e-06
1.39469e-06
1.3946e-06
1.39444e-06
1.39268e-06
1.39255e-06
1.39254e-06
1.39261e-06
1.39421e-06
1.3945e-06
1.39444e-06
1.39231e-06
1.38917e-06
1.38917e-06
1.38917e-06
1.38917e-06
1.39211e-06
1.39282e-06
1.39268e-06
1.38917e-06
1.38917e-06
1.38917e-06
1.38917e-06
1.38917e-06
1.38917e-06
1.39249e-06
1.39443e-06
1.39469e-06
1.39255e-06
1.38917e-06
1.38917e-06
1.38917e-06
1.38917e-06
1.38917e-06
1.38917e-06
1.39228e-06
1.39415e-06
1.3946e-06
1.39254e-06
1.38917e-06
1.38917e-06
1.38917e-06
1.38917e-06
1.38917e-06
1.38917e-06
1.39223e-06
1.39292e-06
1.39261e-06
1.38917e-06
1.38917e-06
1.38917e-06
1.38917e-06
1.38917e-06
1.38917e-06
1.39236e-06
1.39426e-06
1.39421e-06
1.39211e-06
1.38917e-06
1.38917e-06
1.38917e-06
1.38917e-06
1.3918e-06
1.39268e-06
1.39451e-06
1.3945e-06
1.39282e-06
1.39249e-06
1.39228e-06
1.39223e-06
1.39237e-06
1.39269e-06
1.39415e-06
1.39443e-06
1.39415e-06
1.39292e-06
1.39427e-06
1.39452e-06
1.37706e-06
1.37697e-06
1.37681e-06
1.37505e-06
1.37492e-06
1.37491e-06
1.37498e-06
1.37658e-06
1.37687e-06
1.37681e-06
1.37467e-06
1.37153e-06
1.37153e-06
1.37153e-06
1.37153e-06
1.37448e-06
1.37519e-06
1.37505e-06
1.37153e-06
1.37153e-06
1.37153e-06
1.37153e-06
1.37154e-06
1.37154e-06
1.37486e-06
1.3768e-06
1.37705e-06
1.37492e-06
1.37153e-06
1.37153e-06
1.37153e-06
1.37154e-06
1.37154e-06
1.37154e-06
1.37465e-06
1.37652e-06
1.37697e-06
1.37491e-06
1.37153e-06
1.37153e-06
1.37153e-06
1.37154e-06
1.37154e-06
1.37154e-06
1.3746e-06
1.37529e-06
1.37498e-06
1.37153e-06
1.37153e-06
1.37153e-06
1.37154e-06
1.37154e-06
1.37154e-06
1.37473e-06
1.37663e-06
1.37658e-06
1.37448e-06
1.37153e-06
1.37153e-06
1.37154e-06
1.37154e-06
1.37417e-06
1.37504e-06
1.37688e-06
1.37687e-06
1.37519e-06
1.37485e-06
1.37465e-06
1.3746e-06
1.37473e-06
1.37506e-06
1.37652e-06
1.37679e-06
1.37652e-06
1.37528e-06
1.37663e-06
1.37689e-06
1.35942e-06
1.35933e-06
1.35918e-06
1.35742e-06
1.35729e-06
1.35728e-06
1.35734e-06
1.35895e-06
1.35924e-06
1.35917e-06
1.35704e-06
1.3539e-06
1.3539e-06
1.3539e-06
1.3539e-06
1.35684e-06
1.35756e-06
1.35742e-06
1.3539e-06
1.3539e-06
1.3539e-06
1.3539e-06
1.3539e-06
1.3539e-06
1.35722e-06
1.35916e-06
1.35942e-06
1.35729e-06
1.3539e-06
1.3539e-06
1.3539e-06
1.3539e-06
1.3539e-06
1.3539e-06
1.35702e-06
1.35889e-06
1.35934e-06
1.35727e-06
1.3539e-06
1.3539e-06
1.3539e-06
1.3539e-06
1.3539e-06
1.3539e-06
1.35697e-06
1.35765e-06
1.35734e-06
1.3539e-06
1.3539e-06
1.3539e-06
1.3539e-06
1.3539e-06
1.3539e-06
1.3571e-06
1.35899e-06
1.35895e-06
1.35684e-06
1.3539e-06
1.3539e-06
1.3539e-06
1.3539e-06
1.35653e-06
1.35741e-06
1.35925e-06
1.35924e-06
1.35756e-06
1.35722e-06
1.35702e-06
1.35697e-06
1.3571e-06
1.35742e-06
1.35888e-06
1.35916e-06
1.35889e-06
1.35765e-06
1.35899e-06
1.35925e-06
1.34179e-06
1.3417e-06
1.34154e-06
1.33978e-06
1.33965e-06
1.33965e-06
1.33971e-06
1.34131e-06
1.3416e-06
1.34154e-06
1.33941e-06
1.33627e-06
1.33627e-06
1.33627e-06
1.33627e-06
1.33921e-06
1.33992e-06
1.33979e-06
1.33627e-06
1.33627e-06
1.33627e-06
1.33627e-06
1.33627e-06
1.33627e-06
1.33959e-06
1.34153e-06
1.34179e-06
1.33966e-06
1.33627e-06
1.33627e-06
1.33627e-06
1.33627e-06
1.33627e-06
1.33627e-06
1.33939e-06
1.34125e-06
1.34171e-06
1.33964e-06
1.33627e-06
1.33627e-06
1.33627e-06
1.33627e-06
1.33627e-06
1.33627e-06
1.33933e-06
1.34002e-06
1.33971e-06
1.33627e-06
1.33627e-06
1.33627e-06
1.33627e-06
1.33627e-06
1.33627e-06
1.33946e-06
1.34136e-06
1.34131e-06
1.33921e-06
1.33627e-06
1.33627e-06
1.33627e-06
1.33627e-06
1.3389e-06
1.33978e-06
1.34161e-06
1.3416e-06
1.33992e-06
1.33959e-06
1.33939e-06
1.33933e-06
1.33946e-06
1.33979e-06
1.34125e-06
1.34153e-06
1.34126e-06
1.34002e-06
1.34136e-06
1.34162e-06
1.32416e-06
1.32407e-06
1.32391e-06
1.32215e-06
1.32202e-06
1.32201e-06
1.32208e-06
1.32368e-06
1.32397e-06
1.32391e-06
1.32177e-06
1.31864e-06
1.31864e-06
1.31864e-06
1.31864e-06
1.32158e-06
1.32229e-06
1.32215e-06
1.31864e-06
1.31864e-06
1.31864e-06
1.31864e-06
1.31864e-06
1.31864e-06
1.32196e-06
1.3239e-06
1.32416e-06
1.32202e-06
1.31864e-06
1.31864e-06
1.31864e-06
1.31864e-06
1.31864e-06
1.31864e-06
1.32175e-06
1.32362e-06
1.32407e-06
1.32201e-06
1.31864e-06
1.31864e-06
1.31864e-06
1.31864e-06
1.31864e-06
1.31864e-06
1.3217e-06
1.32239e-06
1.32208e-06
1.31864e-06
1.31864e-06
1.31864e-06
1.31864e-06
1.31864e-06
1.31864e-06
1.32183e-06
1.32373e-06
1.32368e-06
1.32158e-06
1.31864e-06
1.31864e-06
1.31864e-06
1.31864e-06
1.32127e-06
1.32215e-06
1.32398e-06
1.32397e-06
1.32229e-06
1.32196e-06
1.32175e-06
1.3217e-06
1.32184e-06
1.32216e-06
1.32362e-06
1.3239e-06
1.32362e-06
1.32239e-06
1.32373e-06
1.32399e-06
1.30652e-06
1.30643e-06
1.30628e-06
1.30452e-06
1.30439e-06
1.30438e-06
1.30445e-06
1.30605e-06
1.30634e-06
1.30628e-06
1.30414e-06
1.301e-06
1.301e-06
1.301e-06
1.301e-06
1.30395e-06
1.30466e-06
1.30452e-06
1.301e-06
1.301e-06
1.301e-06
1.301e-06
1.301e-06
1.301e-06
1.30432e-06
1.30626e-06
1.30653e-06
1.30439e-06
1.301e-06
1.301e-06
1.301e-06
1.301e-06
1.301e-06
1.301e-06
1.30412e-06
1.30599e-06
1.30644e-06
1.30438e-06
1.301e-06
1.301e-06
1.301e-06
1.301e-06
1.301e-06
1.301e-06
1.30407e-06
1.30476e-06
1.30445e-06
1.301e-06
1.301e-06
1.301e-06
1.301e-06
1.301e-06
1.301e-06
1.3042e-06
1.3061e-06
1.30605e-06
1.30395e-06
1.301e-06
1.301e-06
1.301e-06
1.301e-06
1.30364e-06
1.30451e-06
1.30635e-06
1.30634e-06
1.30466e-06
1.30432e-06
1.30412e-06
1.30407e-06
1.3042e-06
1.30453e-06
1.30599e-06
1.30626e-06
1.30599e-06
1.30475e-06
1.3061e-06
1.30636e-06
1.28889e-06
1.2888e-06
1.28865e-06
1.28689e-06
1.28676e-06
1.28675e-06
1.28681e-06
1.28842e-06
1.28871e-06
1.28864e-06
1.28651e-06
1.28337e-06
1.28337e-06
1.28337e-06
1.28337e-06
1.28631e-06
1.28702e-06
1.28689e-06
1.28337e-06
1.28337e-06
1.28337e-06
1.28337e-06
1.28337e-06
1.28337e-06
1.28669e-06
1.28863e-06
1.28889e-06
1.28676e-06
1.28337e-06
1.28337e-06
1.28337e-06
1.28337e-06
1.28337e-06
1.28337e-06
1.28649e-06
1.28836e-06
1.2888e-06
1.28675e-06
1.28337e-06
1.28337e-06
1.28337e-06
1.28337e-06
1.28337e-06
1.28337e-06
1.28643e-06
1.28712e-06
1.28681e-06
1.28337e-06
1.28337e-06
1.28337e-06
1.28337e-06
1.28337e-06
1.28337e-06
1.28657e-06
1.28846e-06
1.28842e-06
1.28631e-06
1.28337e-06
1.28337e-06
1.28337e-06
1.28337e-06
1.286e-06
1.28688e-06
1.28872e-06
1.28871e-06
1.28703e-06
1.28669e-06
1.28649e-06
1.28644e-06
1.28657e-06
1.28689e-06
1.28835e-06
1.28863e-06
1.28836e-06
1.28712e-06
1.28846e-06
1.28872e-06
1.27126e-06
1.27117e-06
1.27101e-06
1.26926e-06
1.26913e-06
1.26911e-06
1.26918e-06
1.27078e-06
1.27107e-06
1.27101e-06
1.26888e-06
1.26574e-06
1.26574e-06
1.26574e-06
1.26574e-06
1.26868e-06
1.26939e-06
1.26925e-06
1.26574e-06
1.26574e-06
1.26574e-06
1.26574e-06
1.26574e-06
1.26574e-06
1.26906e-06
1.271e-06
1.27126e-06
1.26913e-06
1.26574e-06
1.26574e-06
1.26574e-06
1.26574e-06
1.26574e-06
1.26574e-06
1.26885e-06
1.27072e-06
1.27117e-06
1.26911e-06
1.26574e-06
1.26574e-06
1.26574e-06
1.26574e-06
1.26574e-06
1.26574e-06
1.2688e-06
1.26949e-06
1.26918e-06
1.26574e-06
1.26574e-06
1.26574e-06
1.26574e-06
1.26574e-06
1.26574e-06
1.26893e-06
1.27083e-06
1.27079e-06
1.26868e-06
1.26574e-06
1.26574e-06
1.26574e-06
1.26574e-06
1.26837e-06
1.26925e-06
1.27108e-06
1.27107e-06
1.26939e-06
1.26906e-06
1.26886e-06
1.2688e-06
1.26893e-06
1.26926e-06
1.27072e-06
1.271e-06
1.27073e-06
1.26949e-06
1.27083e-06
1.27108e-06
1.25363e-06
1.25354e-06
1.25338e-06
1.25162e-06
1.25149e-06
1.25148e-06
1.25155e-06
1.25315e-06
1.25344e-06
1.25338e-06
1.25124e-06
1.24811e-06
1.24811e-06
1.24811e-06
1.24811e-06
1.25105e-06
1.25176e-06
1.25162e-06
1.24811e-06
1.24811e-06
1.24811e-06
1.24811e-06
1.24811e-06
1.24811e-06
1.25143e-06
1.25337e-06
1.25363e-06
1.25149e-06
1.24811e-06
1.24811e-06
1.24811e-06
1.24811e-06
1.24811e-06
1.24811e-06
1.25122e-06
1.25309e-06
1.25354e-06
1.25148e-06
1.24811e-06
1.24811e-06
1.24811e-06
1.24811e-06
1.24811e-06
1.24811e-06
1.25117e-06
1.25186e-06
1.25155e-06
1.24811e-06
1.24811e-06
1.24811e-06
1.24811e-06
1.24811e-06
1.24811e-06
1.2513e-06
1.2532e-06
1.25315e-06
1.25105e-06
1.24811e-06
1.24811e-06
1.24811e-06
1.24811e-06
1.25074e-06
1.25161e-06
1.25345e-06
1.25344e-06
1.25176e-06
1.25143e-06
1.25123e-06
1.25117e-06
1.2513e-06
1.25163e-06
1.25309e-06
1.25337e-06
1.25309e-06
1.25185e-06
1.2532e-06
1.25345e-06
1.236e-06
1.2359e-06
1.23575e-06
1.23399e-06
1.23386e-06
1.23385e-06
1.23392e-06
1.23552e-06
1.23581e-06
1.23575e-06
1.23361e-06
1.23047e-06
1.23047e-06
1.23047e-06
1.23047e-06
1.23341e-06
1.23413e-06
1.23399e-06
1.23047e-06
1.23047e-06
1.23047e-06
1.23047e-06
1.23047e-06
1.23047e-06
1.23379e-06
1.23573e-06
1.23599e-06
1.23386e-06
1.23047e-06
1.23047e-06
1.23047e-06
1.23047e-06
1.23047e-06
1.23047e-06
1.23359e-06
1.23546e-06
1.2359e-06
1.23385e-06
1.23047e-06
1.23047e-06
1.23047e-06
1.23047e-06
1.23047e-06
1.23047e-06
1.23354e-06
1.23422e-06
1.23392e-06
1.23047e-06
1.23047e-06
1.23047e-06
1.23047e-06
1.23047e-06
1.23047e-06
1.23367e-06
1.23557e-06
1.23552e-06
1.23341e-06
1.23047e-06
1.23047e-06
1.23047e-06
1.23047e-06
1.2331e-06
1.23398e-06
1.23582e-06
1.23581e-06
1.23413e-06
1.23379e-06
1.23359e-06
1.23354e-06
1.23367e-06
1.23399e-06
1.23545e-06
1.23573e-06
1.23546e-06
1.23423e-06
1.23557e-06
1.23582e-06
1.21836e-06
1.21827e-06
1.21812e-06
1.21636e-06
1.21623e-06
1.21622e-06
1.21628e-06
1.21789e-06
1.21817e-06
1.21811e-06
1.21598e-06
1.21284e-06
1.21284e-06
1.21284e-06
1.21284e-06
1.21578e-06
1.21649e-06
1.21636e-06
1.21284e-06
1.21284e-06
1.21284e-06
1.21284e-06
1.21284e-06
1.21284e-06
1.21616e-06
1.2181e-06
1.21836e-06
1.21623e-06
1.21284e-06
1.21284e-06
1.21284e-06
1.21284e-06
1.21284e-06
1.21284e-06
1.21596e-06
1.21782e-06
1.21827e-06
1.21621e-06
1.21284e-06
1.21284e-06
1.21284e-06
1.21284e-06
1.21284e-06
1.21284e-06
1.2159e-06
1.21659e-06
1.21628e-06
1.21284e-06
1.21284e-06
1.21284e-06
1.21284e-06
1.21284e-06
1.21284e-06
1.21603e-06
1.21793e-06
1.21788e-06
1.21578e-06
1.21284e-06
1.21284e-06
1.21284e-06
1.21284e-06
1.21547e-06
1.21635e-06
1.21819e-06
1.21817e-06
1.21649e-06
1.21616e-06
1.21596e-06
1.2159e-06
1.21604e-06
1.21636e-06
1.21782e-06
1.2181e-06
1.21783e-06
1.21659e-06
1.21793e-06
1.21819e-06
1.20073e-06
1.20064e-06
1.20048e-06
1.19873e-06
1.1986e-06
1.19858e-06
1.19865e-06
1.20025e-06
1.20054e-06
1.20048e-06
1.19835e-06
1.19521e-06
1.19521e-06
1.19521e-06
1.19521e-06
1.19815e-06
1.19886e-06
1.19873e-06
1.19521e-06
1.19521e-06
1.19521e-06
1.19521e-06
1.19521e-06
1.19521e-06
1.19853e-06
1.20047e-06
1.20074e-06
1.19859e-06
1.19521e-06
1.19521e-06
1.19521e-06
1.19521e-06
1.19521e-06
1.19521e-06
1.19832e-06
1.20019e-06
1.20061e-06
1.19858e-06
1.19521e-06
1.19521e-06
1.19521e-06
1.19521e-06
1.19521e-06
1.19521e-06
1.19827e-06
1.19896e-06
1.19865e-06
1.19521e-06
1.19521e-06
1.19521e-06
1.19521e-06
1.19521e-06
1.19521e-06
1.1984e-06
1.2003e-06
1.20025e-06
1.19815e-06
1.19521e-06
1.19521e-06
1.19521e-06
1.19521e-06
1.19784e-06
1.19872e-06
1.20055e-06
1.20054e-06
1.19886e-06
1.19853e-06
1.19832e-06
1.19827e-06
1.1984e-06
1.19873e-06
1.20019e-06
1.20047e-06
1.20019e-06
1.19896e-06
1.2003e-06
1.20056e-06
1.1831e-06
1.18301e-06
1.18285e-06
1.18109e-06
1.18096e-06
1.18095e-06
1.18102e-06
1.18262e-06
1.18291e-06
1.18285e-06
1.18072e-06
1.17758e-06
1.17758e-06
1.17758e-06
1.17758e-06
1.18052e-06
1.18123e-06
1.18109e-06
1.17758e-06
1.17758e-06
1.17758e-06
1.17758e-06
1.17758e-06
1.17758e-06
1.1809e-06
1.18284e-06
1.1831e-06
1.18097e-06
1.17758e-06
1.17758e-06
1.17758e-06
1.17758e-06
1.17758e-06
1.17758e-06
1.18069e-06
1.18256e-06
1.18299e-06
1.18095e-06
1.17758e-06
1.17758e-06
1.17758e-06
1.17758e-06
1.17758e-06
1.17758e-06
1.18064e-06
1.18133e-06
1.18102e-06
1.17758e-06
1.17758e-06
1.17758e-06
1.17758e-06
1.17758e-06
1.17758e-06
1.18077e-06
1.18267e-06
1.18262e-06
1.18052e-06
1.17758e-06
1.17758e-06
1.17758e-06
1.17758e-06
1.18021e-06
1.18108e-06
1.18292e-06
1.18291e-06
1.18123e-06
1.1809e-06
1.18069e-06
1.18064e-06
1.18077e-06
1.1811e-06
1.18256e-06
1.18283e-06
1.18256e-06
1.18133e-06
1.18267e-06
1.18292e-06
1.16547e-06
1.16537e-06
1.16522e-06
1.16346e-06
1.16333e-06
1.16332e-06
1.16339e-06
1.16499e-06
1.16528e-06
1.16522e-06
1.16308e-06
1.15994e-06
1.15994e-06
1.15994e-06
1.15994e-06
1.16289e-06
1.1636e-06
1.16346e-06
1.15994e-06
1.15994e-06
1.15994e-06
1.15994e-06
1.15994e-06
1.15994e-06
1.16326e-06
1.1652e-06
1.16546e-06
1.16333e-06
1.15994e-06
1.15994e-06
1.15994e-06
1.15994e-06
1.15994e-06
1.15994e-06
1.16306e-06
1.16493e-06
1.16537e-06
1.16332e-06
1.15994e-06
1.15994e-06
1.15994e-06
1.15994e-06
1.15994e-06
1.15994e-06
1.16301e-06
1.1637e-06
1.16339e-06
1.15994e-06
1.15994e-06
1.15994e-06
1.15994e-06
1.15994e-06
1.15994e-06
1.16314e-06
1.16504e-06
1.16499e-06
1.16288e-06
1.15994e-06
1.15994e-06
1.15994e-06
1.15994e-06
1.16257e-06
1.16345e-06
1.16529e-06
1.16528e-06
1.1636e-06
1.16326e-06
1.16306e-06
1.16301e-06
1.16314e-06
1.16347e-06
1.16493e-06
1.1652e-06
1.16493e-06
1.1637e-06
1.16504e-06
1.16529e-06
1.14783e-06
1.14774e-06
1.14759e-06
1.14583e-06
1.1457e-06
1.14569e-06
1.14575e-06
1.14736e-06
1.14764e-06
1.14758e-06
1.14545e-06
1.14231e-06
1.14231e-06
1.14231e-06
1.14231e-06
1.14525e-06
1.14596e-06
1.14583e-06
1.14231e-06
1.14231e-06
1.14231e-06
1.14231e-06
1.14231e-06
1.14231e-06
1.14563e-06
1.14757e-06
1.14783e-06
1.1457e-06
1.14231e-06
1.14231e-06
1.14231e-06
1.14231e-06
1.14231e-06
1.14231e-06
1.14543e-06
1.1473e-06
1.14774e-06
1.14569e-06
1.14231e-06
1.14231e-06
1.14231e-06
1.14231e-06
1.14231e-06
1.14231e-06
1.14537e-06
1.14606e-06
1.14575e-06
1.14231e-06
1.14231e-06
1.14231e-06
1.14231e-06
1.14231e-06
1.14231e-06
1.1455e-06
1.1474e-06
1.14736e-06
1.14525e-06
1.14231e-06
1.14231e-06
1.14231e-06
1.14231e-06
1.14494e-06
1.14582e-06
1.14766e-06
1.14764e-06
1.14596e-06
1.14563e-06
1.14543e-06
1.14537e-06
1.14551e-06
1.14583e-06
1.14729e-06
1.14757e-06
1.1473e-06
1.14606e-06