/*--------------------------------*- C++ -*----------------------------------*\
| =========                 |                                                 |
| \\      /  F ield         | OpenFOAM: The Open Source CFD Toolbox           |
|  \\    /   O peration     | Version:  v2012                                 |
|   \\  /    A nd           | Website:  www.openfoam.com                      |
|    \\/     M anipulation  |                                                 |
\*---------------------------------------------------------------------------*/
FoamFile
{
    version     2.0;
    format      ascii;
    class       volScalarField;
    location    "0.09";
    object      p;
}
// * * * * * * * * * * * * * * * * * * * * * * * * * * * * * * * * * * * * * //

dimensions      [0 2 -2 0 0 0 0];


internalField   nonuniform List<scalar> 
244288
(
2.28766e-06
2.28929e-06
2.28929e-06
2.28876e-06
2.28835e-06
2.28885e-06
2.28933e-06
2.28928e-06
2.28946e-06
2.28949e-06
2.28918e-06
2.28898e-06
2.28923e-06
2.28952e-06
2.28943e-06
2.28928e-06
2.28949e-06
2.28929e-06
2.28891e-06
2.28874e-06
2.28896e-06
2.28934e-06
2.28949e-06
2.28926e-06
2.28876e-06
2.28918e-06
2.28891e-06
2.2885e-06
2.28833e-06
2.28854e-06
2.28897e-06
2.28918e-06
2.28866e-06
2.28766e-06
2.28835e-06
2.28898e-06
2.28874e-06
2.28833e-06
2.28817e-06
2.28838e-06
2.2888e-06
2.28897e-06
2.28822e-06
2.28885e-06
2.28923e-06
2.28895e-06
2.28854e-06
2.28838e-06
2.28859e-06
2.28902e-06
2.28924e-06
2.28876e-06
2.28932e-06
2.28952e-06
2.28934e-06
2.28897e-06
2.2888e-06
2.28901e-06
2.28939e-06
2.28952e-06
2.28932e-06
2.28943e-06
2.28949e-06
2.28918e-06
2.28897e-06
2.28924e-06
2.28952e-06
2.2894e-06
2.28926e-06
2.28865e-06
2.28822e-06
2.28876e-06
2.28932e-06
2.25451e-06
2.25288e-06
2.25389e-06
2.25211e-06
2.25178e-06
2.25168e-06
2.25178e-06
2.25467e-06
2.25445e-06
2.25388e-06
2.25128e-06
2.24834e-06
2.24818e-06
2.24819e-06
2.24834e-06
2.25298e-06
2.25233e-06
2.2521e-06
2.24833e-06
2.24815e-06
2.24812e-06
2.24812e-06
2.24815e-06
2.24834e-06
2.25324e-06
2.25533e-06
2.25448e-06
2.25178e-06
2.24818e-06
2.24812e-06
2.24815e-06
2.24815e-06
2.24812e-06
2.24819e-06
2.25277e-06
2.25405e-06
2.25286e-06
2.25168e-06
2.24818e-06
2.24812e-06
2.24815e-06
2.24815e-06
2.24813e-06
2.24819e-06
2.25271e-06
2.25133e-06
2.25178e-06
2.24834e-06
2.24815e-06
2.24812e-06
2.24812e-06
2.24815e-06
2.24835e-06
2.25293e-06
2.25301e-06
2.25467e-06
2.25298e-06
2.24833e-06
2.24819e-06
2.24819e-06
2.24834e-06
2.2537e-06
2.25308e-06
2.2554e-06
2.25445e-06
2.25232e-06
2.25323e-06
2.25277e-06
2.2527e-06
2.25293e-06
2.25307e-06
2.25581e-06
2.25532e-06
2.25404e-06
2.25133e-06
2.25301e-06
2.2554e-06
2.23306e-06
2.23285e-06
2.23291e-06
2.23017e-06
2.23018e-06
2.23007e-06
2.23025e-06
2.23388e-06
2.23365e-06
2.2329e-06
2.22909e-06
2.22582e-06
2.22542e-06
2.22541e-06
2.2258e-06
2.23198e-06
2.23126e-06
2.23016e-06
2.22583e-06
2.22469e-06
2.22464e-06
2.22464e-06
2.22466e-06
2.22583e-06
2.23319e-06
2.23461e-06
2.23298e-06
2.2302e-06
2.22542e-06
2.22464e-06
2.22466e-06
2.22466e-06
2.22463e-06
2.22539e-06
2.23308e-06
2.23348e-06
2.23277e-06
2.23006e-06
2.2254e-06
2.22464e-06
2.22466e-06
2.22466e-06
2.22463e-06
2.22541e-06
2.23287e-06
2.2303e-06
2.23023e-06
2.22579e-06
2.22466e-06
2.22463e-06
2.22463e-06
2.22466e-06
2.22581e-06
2.23328e-06
2.23424e-06
2.23387e-06
2.23197e-06
2.22583e-06
2.22539e-06
2.22539e-06
2.22582e-06
2.23396e-06
2.23232e-06
2.2343e-06
2.23365e-06
2.23125e-06
2.23318e-06
2.23307e-06
2.23287e-06
2.23328e-06
2.23235e-06
2.23495e-06
2.23459e-06
2.23342e-06
2.23033e-06
2.23425e-06
2.2343e-06
2.20985e-06
2.20969e-06
2.20974e-06
2.20669e-06
2.20676e-06
2.20651e-06
2.20697e-06
2.21073e-06
2.21057e-06
2.20975e-06
2.20494e-06
2.20208e-06
2.20193e-06
2.20193e-06
2.20213e-06
2.20828e-06
2.20831e-06
2.20668e-06
2.20208e-06
2.20171e-06
2.20168e-06
2.20168e-06
2.20172e-06
2.2021e-06
2.21016e-06
2.2115e-06
2.20981e-06
2.20678e-06
2.20193e-06
2.20168e-06
2.20166e-06
2.20167e-06
2.20168e-06
2.20194e-06
2.21049e-06
2.21037e-06
2.20965e-06
2.20651e-06
2.20193e-06
2.20168e-06
2.20167e-06
2.20167e-06
2.20169e-06
2.20194e-06
2.21034e-06
2.20737e-06
2.20696e-06
2.20212e-06
2.20172e-06
2.20168e-06
2.20168e-06
2.20172e-06
2.20213e-06
2.21052e-06
2.21113e-06
2.21072e-06
2.20827e-06
2.20211e-06
2.20195e-06
2.20194e-06
2.20211e-06
2.21118e-06
2.20929e-06
2.21132e-06
2.21055e-06
2.20831e-06
2.21017e-06
2.21051e-06
2.21035e-06
2.21053e-06
2.20931e-06
2.21168e-06
2.21147e-06
2.21037e-06
2.2074e-06
2.21114e-06
2.21131e-06
2.1864e-06
2.18626e-06
2.18602e-06
2.18288e-06
2.18296e-06
2.18257e-06
2.1832e-06
2.18697e-06
2.18678e-06
2.18602e-06
2.18067e-06
2.1781e-06
2.17806e-06
2.17806e-06
2.17811e-06
2.18419e-06
2.18465e-06
2.18288e-06
2.17809e-06
2.17801e-06
2.178e-06
2.178e-06
2.17801e-06
2.1781e-06
2.18657e-06
2.18792e-06
2.1864e-06
2.18294e-06
2.17806e-06
2.178e-06
2.178e-06
2.178e-06
2.17801e-06
2.17806e-06
2.18723e-06
2.18702e-06
2.18627e-06
2.18256e-06
2.17806e-06
2.178e-06
2.178e-06
2.178e-06
2.17801e-06
2.17806e-06
2.18715e-06
2.18411e-06
2.18321e-06
2.17811e-06
2.17802e-06
2.17801e-06
2.17801e-06
2.17802e-06
2.17811e-06
2.1871e-06
2.18774e-06
2.18697e-06
2.18418e-06
2.1781e-06
2.17807e-06
2.17806e-06
2.1781e-06
2.18779e-06
2.18573e-06
2.18767e-06
2.18678e-06
2.18466e-06
2.18658e-06
2.18725e-06
2.18716e-06
2.1871e-06
2.18575e-06
2.18794e-06
2.18794e-06
2.18702e-06
2.18412e-06
2.18775e-06
2.18768e-06
2.16269e-06
2.16259e-06
2.16223e-06
2.15907e-06
2.15915e-06
2.15869e-06
2.1594e-06
2.16318e-06
2.16299e-06
2.16223e-06
2.15673e-06
2.15422e-06
2.15422e-06
2.15422e-06
2.15423e-06
2.16025e-06
2.16088e-06
2.15907e-06
2.15422e-06
2.1542e-06
2.1542e-06
2.1542e-06
2.15421e-06
2.15423e-06
2.1628e-06
2.16417e-06
2.16275e-06
2.15911e-06
2.15422e-06
2.1542e-06
2.15421e-06
2.15421e-06
2.15421e-06
2.15422e-06
2.16356e-06
2.16334e-06
2.16263e-06
2.15873e-06
2.15422e-06
2.15421e-06
2.15421e-06
2.15421e-06
2.15421e-06
2.15422e-06
2.1635e-06
2.16046e-06
2.15939e-06
2.15423e-06
2.15421e-06
2.15421e-06
2.15421e-06
2.15421e-06
2.15423e-06
2.16337e-06
2.16405e-06
2.16318e-06
2.16026e-06
2.15423e-06
2.15422e-06
2.15422e-06
2.15423e-06
2.16413e-06
2.16199e-06
2.16392e-06
2.16299e-06
2.16087e-06
2.16281e-06
2.16356e-06
2.1635e-06
2.16338e-06
2.162e-06
2.16416e-06
2.16418e-06
2.16334e-06
2.16046e-06
2.16404e-06
2.16392e-06
2.1389e-06
2.1388e-06
2.13842e-06
2.13525e-06
2.13532e-06
2.13484e-06
2.13558e-06
2.13936e-06
2.13917e-06
2.13841e-06
2.13289e-06
2.13039e-06
2.13038e-06
2.13038e-06
2.13039e-06
2.13641e-06
2.13706e-06
2.13525e-06
2.13039e-06
2.13038e-06
2.13038e-06
2.13038e-06
2.13038e-06
2.13039e-06
2.13898e-06
2.14035e-06
2.13897e-06
2.13528e-06
2.13039e-06
2.13038e-06
2.13038e-06
2.13038e-06
2.13038e-06
2.13038e-06
2.13977e-06
2.13954e-06
2.13881e-06
2.13488e-06
2.13039e-06
2.13038e-06
2.13038e-06
2.13038e-06
2.13038e-06
2.13038e-06
2.13971e-06
2.13668e-06
2.13557e-06
2.13039e-06
2.13038e-06
2.13038e-06
2.13038e-06
2.13038e-06
2.13039e-06
2.13957e-06
2.14025e-06
2.13936e-06
2.13641e-06
2.13039e-06
2.13038e-06
2.13038e-06
2.13039e-06
2.14035e-06
2.1382e-06
2.1401e-06
2.13917e-06
2.13706e-06
2.13899e-06
2.13978e-06
2.13972e-06
2.13957e-06
2.1382e-06
2.14034e-06
2.14036e-06
2.13954e-06
2.13668e-06
2.14025e-06
2.1401e-06
2.11509e-06
2.11498e-06
2.1146e-06
2.11142e-06
2.1115e-06
2.11101e-06
2.11175e-06
2.11554e-06
2.11534e-06
2.11458e-06
2.10903e-06
2.10656e-06
2.10656e-06
2.10655e-06
2.10656e-06
2.11257e-06
2.11323e-06
2.11141e-06
2.10655e-06
2.10655e-06
2.10655e-06
2.10655e-06
2.10655e-06
2.10656e-06
2.11517e-06
2.11653e-06
2.11511e-06
2.11146e-06
2.10655e-06
2.10655e-06
2.10655e-06
2.10655e-06
2.10655e-06
2.10655e-06
2.11595e-06
2.11572e-06
2.11501e-06
2.11099e-06
2.10655e-06
2.10655e-06
2.10655e-06
2.10655e-06
2.10655e-06
2.10655e-06
2.11589e-06
2.11286e-06
2.11176e-06
2.10655e-06
2.10655e-06
2.10655e-06
2.10655e-06
2.10655e-06
2.10656e-06
2.11575e-06
2.11642e-06
2.11554e-06
2.11257e-06
2.10655e-06
2.10655e-06
2.10655e-06
2.10655e-06
2.11653e-06
2.11437e-06
2.11627e-06
2.11534e-06
2.11323e-06
2.11517e-06
2.11596e-06
2.1159e-06
2.11575e-06
2.11438e-06
2.11652e-06
2.11655e-06
2.11573e-06
2.11287e-06
2.11643e-06
2.11627e-06
2.09126e-06
2.09115e-06
2.09076e-06
2.08759e-06
2.08767e-06
2.08717e-06
2.08792e-06
2.09171e-06
2.09151e-06
2.09075e-06
2.08519e-06
2.08272e-06
2.08272e-06
2.08272e-06
2.08272e-06
2.08874e-06
2.0894e-06
2.08757e-06
2.08272e-06
2.08272e-06
2.08272e-06
2.08272e-06
2.08272e-06
2.08272e-06
2.09134e-06
2.0927e-06
2.09119e-06
2.08767e-06
2.08272e-06
2.08272e-06
2.08272e-06
2.08272e-06
2.08272e-06
2.08272e-06
2.09213e-06
2.0919e-06
2.09109e-06
2.08722e-06
2.08272e-06
2.08272e-06
2.08272e-06
2.08272e-06
2.08272e-06
2.08272e-06
2.09207e-06
2.08904e-06
2.08791e-06
2.08272e-06
2.08272e-06
2.08272e-06
2.08272e-06
2.08272e-06
2.08272e-06
2.09193e-06
2.0926e-06
2.09171e-06
2.08874e-06
2.08273e-06
2.08272e-06
2.08272e-06
2.08272e-06
2.09271e-06
2.09055e-06
2.09245e-06
2.09152e-06
2.0894e-06
2.09134e-06
2.09213e-06
2.09207e-06
2.09192e-06
2.09055e-06
2.09269e-06
2.09271e-06
2.0919e-06
2.08904e-06
2.09261e-06
2.09244e-06
2.06743e-06
2.06732e-06
2.06693e-06
2.06376e-06
2.06384e-06
2.06334e-06
2.06409e-06
2.06788e-06
2.06768e-06
2.06691e-06
2.06136e-06
2.05889e-06
2.05889e-06
2.05889e-06
2.05889e-06
2.06491e-06
2.06557e-06
2.06376e-06
2.0589e-06
2.05889e-06
2.05889e-06
2.05889e-06
2.05889e-06
2.05889e-06
2.06751e-06
2.06887e-06
2.06736e-06
2.06383e-06
2.0589e-06
2.05889e-06
2.05889e-06
2.05889e-06
2.05889e-06
2.05889e-06
2.0683e-06
2.06807e-06
2.06724e-06
2.06337e-06
2.05889e-06
2.05889e-06
2.05889e-06
2.05889e-06
2.05889e-06
2.05889e-06
2.06824e-06
2.06521e-06
2.06407e-06
2.05889e-06
2.05889e-06
2.05889e-06
2.05889e-06
2.05889e-06
2.05889e-06
2.0681e-06
2.06877e-06
2.06787e-06
2.06491e-06
2.05889e-06
2.05889e-06
2.05889e-06
2.05889e-06
2.06888e-06
2.06672e-06
2.06862e-06
2.06768e-06
2.06557e-06
2.06751e-06
2.0683e-06
2.06825e-06
2.0681e-06
2.06672e-06
2.06886e-06
2.06889e-06
2.06807e-06
2.06521e-06
2.06877e-06
2.06861e-06
2.0436e-06
2.0435e-06
2.04311e-06
2.03993e-06
2.04e-06
2.03951e-06
2.04026e-06
2.04405e-06
2.04385e-06
2.04309e-06
2.03754e-06
2.03506e-06
2.03506e-06
2.03506e-06
2.03506e-06
2.04108e-06
2.04174e-06
2.03992e-06
2.03506e-06
2.03506e-06
2.03506e-06
2.03506e-06
2.03506e-06
2.03506e-06
2.04368e-06
2.04504e-06
2.04352e-06
2.03999e-06
2.03507e-06
2.03506e-06
2.03506e-06
2.03506e-06
2.03506e-06
2.03506e-06
2.04447e-06
2.04424e-06
2.04345e-06
2.03955e-06
2.03507e-06
2.03506e-06
2.03506e-06
2.03506e-06
2.03506e-06
2.03506e-06
2.04441e-06
2.04138e-06
2.04025e-06
2.03506e-06
2.03506e-06
2.03506e-06
2.03506e-06
2.03506e-06
2.03506e-06
2.04427e-06
2.04494e-06
2.04404e-06
2.04108e-06
2.03506e-06
2.03506e-06
2.03506e-06
2.03506e-06
2.04505e-06
2.04289e-06
2.04479e-06
2.04385e-06
2.04174e-06
2.04368e-06
2.04447e-06
2.04442e-06
2.04427e-06
2.04289e-06
2.04503e-06
2.04505e-06
2.04424e-06
2.04138e-06
2.04495e-06
2.04478e-06
2.01976e-06
2.01966e-06
2.01928e-06
2.0161e-06
2.01618e-06
2.01568e-06
2.01643e-06
2.02022e-06
2.02002e-06
2.01926e-06
2.01371e-06
2.01123e-06
2.01123e-06
2.01123e-06
2.01123e-06
2.01724e-06
2.01791e-06
2.0161e-06
2.01123e-06
2.01123e-06
2.01123e-06
2.01123e-06
2.01123e-06
2.01123e-06
2.01985e-06
2.02121e-06
2.01977e-06
2.01617e-06
2.01123e-06
2.01123e-06
2.01123e-06
2.01123e-06
2.01123e-06
2.01123e-06
2.02064e-06
2.02041e-06
2.01966e-06
2.01568e-06
2.01123e-06
2.01123e-06
2.01123e-06
2.01123e-06
2.01123e-06
2.01123e-06
2.02058e-06
2.01755e-06
2.01643e-06
2.01123e-06
2.01123e-06
2.01123e-06
2.01123e-06
2.01123e-06
2.01123e-06
2.02044e-06
2.02111e-06
2.02022e-06
2.01725e-06
2.01123e-06
2.01123e-06
2.01123e-06
2.01123e-06
2.02122e-06
2.01906e-06
2.02096e-06
2.02002e-06
2.01791e-06
2.01985e-06
2.02064e-06
2.02059e-06
2.02044e-06
2.01906e-06
2.0212e-06
2.02122e-06
2.02041e-06
2.01755e-06
2.02112e-06
2.02096e-06
1.99594e-06
1.99584e-06
1.99545e-06
1.99227e-06
1.99234e-06
1.99185e-06
1.9926e-06
1.99639e-06
1.99619e-06
1.99543e-06
1.98988e-06
1.9874e-06
1.9874e-06
1.9874e-06
1.9874e-06
1.99341e-06
1.99408e-06
1.99227e-06
1.9874e-06
1.9874e-06
1.9874e-06
1.9874e-06
1.9874e-06
1.9874e-06
1.99602e-06
1.99738e-06
1.99596e-06
1.99231e-06
1.9874e-06
1.9874e-06
1.9874e-06
1.9874e-06
1.9874e-06
1.9874e-06
1.99681e-06
1.99658e-06
1.99583e-06
1.99189e-06
1.9874e-06
1.9874e-06
1.9874e-06
1.9874e-06
1.9874e-06
1.9874e-06
1.99675e-06
1.99372e-06
1.99259e-06
1.9874e-06
1.9874e-06
1.9874e-06
1.9874e-06
1.9874e-06
1.9874e-06
1.99661e-06
1.99728e-06
1.99638e-06
1.99342e-06
1.9874e-06
1.9874e-06
1.9874e-06
1.9874e-06
1.99739e-06
1.99523e-06
1.99713e-06
1.99619e-06
1.99408e-06
1.99602e-06
1.99681e-06
1.99676e-06
1.99661e-06
1.99523e-06
1.99737e-06
1.99739e-06
1.99658e-06
1.99372e-06
1.99728e-06
1.99712e-06
1.97211e-06
1.972e-06
1.97162e-06
1.96844e-06
1.96852e-06
1.96802e-06
1.96877e-06
1.97256e-06
1.97236e-06
1.97161e-06
1.96605e-06
1.96357e-06
1.96357e-06
1.96357e-06
1.96357e-06
1.96958e-06
1.97025e-06
1.96844e-06
1.96357e-06
1.96357e-06
1.96357e-06
1.96357e-06
1.96357e-06
1.96357e-06
1.97219e-06
1.97355e-06
1.97222e-06
1.96846e-06
1.96357e-06
1.96357e-06
1.96357e-06
1.96357e-06
1.96357e-06
1.96357e-06
1.97298e-06
1.97275e-06
1.97198e-06
1.96808e-06
1.96357e-06
1.96357e-06
1.96357e-06
1.96357e-06
1.96357e-06
1.96357e-06
1.97292e-06
1.96989e-06
1.96877e-06
1.96357e-06
1.96357e-06
1.96357e-06
1.96357e-06
1.96357e-06
1.96357e-06
1.97278e-06
1.97345e-06
1.97255e-06
1.96959e-06
1.96357e-06
1.96357e-06
1.96357e-06
1.96357e-06
1.97356e-06
1.9714e-06
1.9733e-06
1.97236e-06
1.97025e-06
1.97219e-06
1.97298e-06
1.97293e-06
1.97278e-06
1.9714e-06
1.97354e-06
1.97356e-06
1.97275e-06
1.96989e-06
1.97346e-06
1.9733e-06
1.94827e-06
1.94817e-06
1.94778e-06
1.94461e-06
1.94468e-06
1.94419e-06
1.94494e-06
1.94873e-06
1.94853e-06
1.94777e-06
1.94222e-06
1.93974e-06
1.93974e-06
1.93974e-06
1.93974e-06
1.94575e-06
1.94642e-06
1.94461e-06
1.93974e-06
1.93974e-06
1.93974e-06
1.93974e-06
1.93974e-06
1.93974e-06
1.94835e-06
1.94972e-06
1.94834e-06
1.94464e-06
1.93974e-06
1.93974e-06
1.93974e-06
1.93974e-06
1.93974e-06
1.93974e-06
1.94914e-06
1.94892e-06
1.94824e-06
1.94422e-06
1.93974e-06
1.93974e-06
1.93974e-06
1.93974e-06
1.93974e-06
1.93974e-06
1.94909e-06
1.94606e-06
1.94494e-06
1.93974e-06
1.93974e-06
1.93974e-06
1.93974e-06
1.93974e-06
1.93974e-06
1.94894e-06
1.94962e-06
1.94872e-06
1.94574e-06
1.93974e-06
1.93974e-06
1.93974e-06
1.93974e-06
1.94973e-06
1.94757e-06
1.94947e-06
1.94853e-06
1.94642e-06
1.94836e-06
1.94915e-06
1.9491e-06
1.94895e-06
1.94757e-06
1.94971e-06
1.94973e-06
1.94892e-06
1.94606e-06
1.94962e-06
1.94946e-06
1.92445e-06
1.92435e-06
1.92395e-06
1.92078e-06
1.92085e-06
1.92036e-06
1.92111e-06
1.9249e-06
1.9247e-06
1.92393e-06
1.91838e-06
1.91591e-06
1.91591e-06
1.91591e-06
1.91591e-06
1.92192e-06
1.92259e-06
1.92077e-06
1.91591e-06
1.91591e-06
1.91591e-06
1.91591e-06
1.91591e-06
1.91591e-06
1.92452e-06
1.92589e-06
1.92444e-06
1.92084e-06
1.91591e-06
1.91591e-06
1.91591e-06
1.91591e-06
1.91591e-06
1.91591e-06
1.92531e-06
1.92509e-06
1.92431e-06
1.92037e-06
1.91591e-06
1.91591e-06
1.91591e-06
1.91591e-06
1.91591e-06
1.91591e-06
1.92526e-06
1.92223e-06
1.92111e-06
1.91591e-06
1.91591e-06
1.91591e-06
1.91591e-06
1.91591e-06
1.91591e-06
1.92511e-06
1.92579e-06
1.92491e-06
1.92192e-06
1.91591e-06
1.91591e-06
1.91591e-06
1.91591e-06
1.9259e-06
1.92374e-06
1.92563e-06
1.9247e-06
1.92259e-06
1.92453e-06
1.92532e-06
1.92526e-06
1.92511e-06
1.92373e-06
1.92588e-06
1.9259e-06
1.92509e-06
1.92223e-06
1.92579e-06
1.92563e-06
1.90061e-06
1.90051e-06
1.90012e-06
1.89695e-06
1.89702e-06
1.89652e-06
1.89728e-06
1.90107e-06
1.90087e-06
1.90011e-06
1.89456e-06
1.89208e-06
1.89208e-06
1.89208e-06
1.89208e-06
1.89809e-06
1.89876e-06
1.89694e-06
1.89208e-06
1.89208e-06
1.89208e-06
1.89208e-06
1.89208e-06
1.89208e-06
1.90069e-06
1.90206e-06
1.90061e-06
1.897e-06
1.89208e-06
1.89208e-06
1.89208e-06
1.89208e-06
1.89208e-06
1.89208e-06
1.90148e-06
1.90126e-06
1.90053e-06
1.89653e-06
1.89208e-06
1.89208e-06
1.89208e-06
1.89208e-06
1.89208e-06
1.89208e-06
1.90143e-06
1.8984e-06
1.89728e-06
1.89208e-06
1.89208e-06
1.89208e-06
1.89208e-06
1.89208e-06
1.89208e-06
1.90128e-06
1.90196e-06
1.90107e-06
1.89809e-06
1.89208e-06
1.89208e-06
1.89208e-06
1.89208e-06
1.90207e-06
1.89991e-06
1.9018e-06
1.90087e-06
1.89876e-06
1.9007e-06
1.90148e-06
1.90144e-06
1.90128e-06
1.89991e-06
1.90204e-06
1.90207e-06
1.90126e-06
1.89838e-06
1.90196e-06
1.9018e-06
1.87678e-06
1.87668e-06
1.87629e-06
1.87312e-06
1.8732e-06
1.8727e-06
1.87345e-06
1.87724e-06
1.87704e-06
1.87627e-06
1.87072e-06
1.86825e-06
1.86825e-06
1.86825e-06
1.86825e-06
1.87426e-06
1.87493e-06
1.87311e-06
1.86825e-06
1.86825e-06
1.86825e-06
1.86825e-06
1.86825e-06
1.86825e-06
1.87686e-06
1.87823e-06
1.8768e-06
1.87319e-06
1.86825e-06
1.86825e-06
1.86825e-06
1.86825e-06
1.86825e-06
1.86825e-06
1.87765e-06
1.87743e-06
1.8767e-06
1.8727e-06
1.86825e-06
1.86825e-06
1.86825e-06
1.86825e-06
1.86825e-06
1.86825e-06
1.8776e-06
1.87457e-06
1.87345e-06
1.86825e-06
1.86825e-06
1.86825e-06
1.86825e-06
1.86825e-06
1.86825e-06
1.87746e-06
1.87813e-06
1.87724e-06
1.87426e-06
1.86825e-06
1.86825e-06
1.86825e-06
1.86825e-06
1.87824e-06
1.87608e-06
1.87797e-06
1.87704e-06
1.87493e-06
1.87686e-06
1.87765e-06
1.8776e-06
1.87744e-06
1.87608e-06
1.87822e-06
1.87824e-06
1.87748e-06
1.87451e-06
1.8781e-06
1.87796e-06
1.85296e-06
1.85286e-06
1.85246e-06
1.84929e-06
1.84936e-06
1.84887e-06
1.84962e-06
1.85341e-06
1.85321e-06
1.85244e-06
1.84689e-06
1.84442e-06
1.84442e-06
1.84442e-06
1.84442e-06
1.85043e-06
1.8511e-06
1.84928e-06
1.84442e-06
1.84442e-06
1.84442e-06
1.84442e-06
1.84442e-06
1.84442e-06
1.85303e-06
1.8544e-06
1.85294e-06
1.84938e-06
1.84442e-06
1.84442e-06
1.84442e-06
1.84442e-06
1.84442e-06
1.84442e-06
1.85382e-06
1.85359e-06
1.85282e-06
1.84888e-06
1.84442e-06
1.84442e-06
1.84442e-06
1.84442e-06
1.84442e-06
1.84442e-06
1.85377e-06
1.85074e-06
1.84961e-06
1.84442e-06
1.84442e-06
1.84442e-06
1.84442e-06
1.84442e-06
1.84442e-06
1.85362e-06
1.8543e-06
1.85341e-06
1.85044e-06
1.84442e-06
1.84442e-06
1.84442e-06
1.84442e-06
1.85441e-06
1.85225e-06
1.85414e-06
1.85321e-06
1.8511e-06
1.85304e-06
1.85382e-06
1.85379e-06
1.85362e-06
1.85225e-06
1.85438e-06
1.85442e-06
1.85365e-06
1.85072e-06
1.85428e-06
1.85412e-06
1.82912e-06
1.82902e-06
1.82863e-06
1.82546e-06
1.82553e-06
1.82504e-06
1.82579e-06
1.82958e-06
1.82938e-06
1.82861e-06
1.82306e-06
1.82059e-06
1.82059e-06
1.82059e-06
1.82059e-06
1.8266e-06
1.82727e-06
1.82545e-06
1.82059e-06
1.82059e-06
1.82059e-06
1.82059e-06
1.82059e-06
1.82059e-06
1.8292e-06
1.83057e-06
1.82913e-06
1.82553e-06
1.82059e-06
1.82059e-06
1.82059e-06
1.82059e-06
1.82059e-06
1.82059e-06
1.82999e-06
1.82976e-06
1.829e-06
1.82504e-06
1.82059e-06
1.82059e-06
1.82059e-06
1.82059e-06
1.82059e-06
1.82059e-06
1.82994e-06
1.8269e-06
1.82579e-06
1.82059e-06
1.82059e-06
1.82059e-06
1.82059e-06
1.82059e-06
1.82059e-06
1.82979e-06
1.83047e-06
1.82958e-06
1.8266e-06
1.82059e-06
1.82059e-06
1.82059e-06
1.82059e-06
1.83058e-06
1.82842e-06
1.83031e-06
1.82938e-06
1.82726e-06
1.82919e-06
1.82998e-06
1.82997e-06
1.8298e-06
1.82842e-06
1.83055e-06
1.83055e-06
1.82971e-06
1.82695e-06
1.83049e-06
1.83031e-06
1.80529e-06
1.80518e-06
1.8048e-06
1.80163e-06
1.80171e-06
1.80121e-06
1.80195e-06
1.80574e-06
1.80555e-06
1.80478e-06
1.79923e-06
1.79676e-06
1.79676e-06
1.79676e-06
1.79676e-06
1.80277e-06
1.80344e-06
1.80162e-06
1.79676e-06
1.79676e-06
1.79676e-06
1.79676e-06
1.79676e-06
1.79676e-06
1.80537e-06
1.80674e-06
1.8053e-06
1.80169e-06
1.79675e-06
1.79676e-06
1.79676e-06
1.79676e-06
1.79676e-06
1.79676e-06
1.80616e-06
1.80593e-06
1.80518e-06
1.8012e-06
1.79676e-06
1.79676e-06
1.79676e-06
1.79676e-06
1.79676e-06
1.79676e-06
1.80611e-06
1.80307e-06
1.80196e-06
1.79676e-06
1.79676e-06
1.79676e-06
1.79676e-06
1.79676e-06
1.79676e-06
1.80596e-06
1.80663e-06
1.80575e-06
1.80277e-06
1.79676e-06
1.79676e-06
1.79676e-06
1.79676e-06
1.80675e-06
1.80459e-06
1.80648e-06
1.80555e-06
1.80343e-06
1.80537e-06
1.80615e-06
1.80615e-06
1.80597e-06
1.80459e-06
1.80672e-06
1.80671e-06
1.80587e-06
1.80315e-06
1.80665e-06
1.80648e-06
1.78146e-06
1.78135e-06
1.78097e-06
1.77779e-06
1.77788e-06
1.77738e-06
1.77812e-06
1.78192e-06
1.78172e-06
1.78095e-06
1.7754e-06
1.77293e-06
1.77293e-06
1.77293e-06
1.77293e-06
1.77894e-06
1.77961e-06
1.77779e-06
1.77293e-06
1.77293e-06
1.77293e-06
1.77293e-06
1.77293e-06
1.77293e-06
1.78154e-06
1.78291e-06
1.78147e-06
1.77787e-06
1.77293e-06
1.77293e-06
1.77293e-06
1.77293e-06
1.77293e-06
1.77293e-06
1.78233e-06
1.7821e-06
1.78137e-06
1.77738e-06
1.77293e-06
1.77293e-06
1.77293e-06
1.77293e-06
1.77293e-06
1.77293e-06
1.78227e-06
1.77924e-06
1.77813e-06
1.77293e-06
1.77293e-06
1.77293e-06
1.77293e-06
1.77293e-06
1.77293e-06
1.78213e-06
1.7828e-06
1.78192e-06
1.77894e-06
1.77293e-06
1.77293e-06
1.77293e-06
1.77293e-06
1.78292e-06
1.78076e-06
1.78265e-06
1.78172e-06
1.77961e-06
1.78154e-06
1.78233e-06
1.78228e-06
1.78211e-06
1.78075e-06
1.78289e-06
1.78291e-06
1.78215e-06
1.7792e-06
1.78277e-06
1.78264e-06
1.75763e-06
1.75752e-06
1.75714e-06
1.75396e-06
1.75405e-06
1.75354e-06
1.75429e-06
1.75808e-06
1.75789e-06
1.75712e-06
1.75157e-06
1.7491e-06
1.7491e-06
1.7491e-06
1.7491e-06
1.75511e-06
1.75578e-06
1.75396e-06
1.7491e-06
1.7491e-06
1.7491e-06
1.7491e-06
1.74909e-06
1.74909e-06
1.75771e-06
1.75907e-06
1.75763e-06
1.75403e-06
1.7491e-06
1.7491e-06
1.7491e-06
1.7491e-06
1.7491e-06
1.7491e-06
1.7585e-06
1.75827e-06
1.75753e-06
1.75355e-06
1.7491e-06
1.7491e-06
1.7491e-06
1.7491e-06
1.7491e-06
1.7491e-06
1.75844e-06
1.75541e-06
1.7543e-06
1.7491e-06
1.7491e-06
1.7491e-06
1.7491e-06
1.7491e-06
1.7491e-06
1.7583e-06
1.75898e-06
1.75809e-06
1.75511e-06
1.7491e-06
1.7491e-06
1.7491e-06
1.7491e-06
1.75908e-06
1.75692e-06
1.75882e-06
1.75789e-06
1.75578e-06
1.75772e-06
1.75851e-06
1.75847e-06
1.75829e-06
1.75692e-06
1.75906e-06
1.7591e-06
1.75833e-06
1.7554e-06
1.75896e-06
1.75879e-06
1.73379e-06
1.73368e-06
1.73331e-06
1.73013e-06
1.73021e-06
1.72972e-06
1.73046e-06
1.73426e-06
1.73406e-06
1.73329e-06
1.72774e-06
1.72527e-06
1.72527e-06
1.72526e-06
1.72527e-06
1.73128e-06
1.73195e-06
1.73013e-06
1.72527e-06
1.72527e-06
1.72527e-06
1.72526e-06
1.72527e-06
1.72527e-06
1.73388e-06
1.73524e-06
1.7338e-06
1.73021e-06
1.72527e-06
1.72527e-06
1.72527e-06
1.72526e-06
1.72527e-06
1.72527e-06
1.73467e-06
1.73444e-06
1.73369e-06
1.72971e-06
1.72526e-06
1.72526e-06
1.72527e-06
1.72527e-06
1.72527e-06
1.72527e-06
1.73461e-06
1.73158e-06
1.73047e-06
1.72526e-06
1.72526e-06
1.72527e-06
1.72526e-06
1.72526e-06
1.72527e-06
1.73447e-06
1.73514e-06
1.73425e-06
1.73128e-06
1.72526e-06
1.72527e-06
1.72526e-06
1.72526e-06
1.73526e-06
1.7331e-06
1.73499e-06
1.73406e-06
1.73194e-06
1.73387e-06
1.73466e-06
1.73465e-06
1.73447e-06
1.73309e-06
1.73523e-06
1.73523e-06
1.73441e-06
1.73161e-06
1.73516e-06
1.735e-06
1.70996e-06
1.70986e-06
1.70947e-06
1.7063e-06
1.70637e-06
1.70588e-06
1.70663e-06
1.71043e-06
1.71023e-06
1.70946e-06
1.70391e-06
1.70143e-06
1.70143e-06
1.70143e-06
1.70144e-06
1.70745e-06
1.70812e-06
1.7063e-06
1.70143e-06
1.70143e-06
1.70143e-06
1.70144e-06
1.70144e-06
1.70144e-06
1.71005e-06
1.71141e-06
1.70998e-06
1.70636e-06
1.70143e-06
1.70143e-06
1.70143e-06
1.70144e-06
1.70144e-06
1.70144e-06
1.71084e-06
1.71061e-06
1.70988e-06
1.70588e-06
1.70143e-06
1.70143e-06
1.70143e-06
1.70143e-06
1.70144e-06
1.70144e-06
1.71078e-06
1.70776e-06
1.70663e-06
1.70143e-06
1.70144e-06
1.70144e-06
1.70143e-06
1.70143e-06
1.70143e-06
1.71064e-06
1.71131e-06
1.71042e-06
1.70744e-06
1.70144e-06
1.70144e-06
1.70143e-06
1.70143e-06
1.71143e-06
1.70926e-06
1.71116e-06
1.71022e-06
1.70811e-06
1.71004e-06
1.71083e-06
1.71082e-06
1.71064e-06
1.70927e-06
1.7114e-06
1.71139e-06
1.71053e-06
1.70781e-06
1.71133e-06
1.71116e-06
1.68615e-06
1.68605e-06
1.68564e-06
1.68247e-06
1.68253e-06
1.68205e-06
1.68281e-06
1.6866e-06
1.6864e-06
1.68562e-06
1.68008e-06
1.6776e-06
1.6776e-06
1.67761e-06
1.67761e-06
1.68362e-06
1.68429e-06
1.68247e-06
1.67761e-06
1.6776e-06
1.6776e-06
1.67761e-06
1.67761e-06
1.67761e-06
1.68622e-06
1.68759e-06
1.68615e-06
1.68255e-06
1.6776e-06
1.6776e-06
1.6776e-06
1.67761e-06
1.67761e-06
1.67761e-06
1.68701e-06
1.68678e-06
1.68604e-06
1.68205e-06
1.6776e-06
1.6776e-06
1.6776e-06
1.6776e-06
1.6776e-06
1.6776e-06
1.68696e-06
1.68392e-06
1.6828e-06
1.6776e-06
1.6776e-06
1.67761e-06
1.6776e-06
1.6776e-06
1.6776e-06
1.68681e-06
1.68748e-06
1.68659e-06
1.68361e-06
1.6776e-06
1.6776e-06
1.6776e-06
1.6776e-06
1.68759e-06
1.68543e-06
1.68733e-06
1.6864e-06
1.68428e-06
1.68622e-06
1.68701e-06
1.68698e-06
1.68681e-06
1.68543e-06
1.68757e-06
1.68758e-06
1.68673e-06
1.68396e-06
1.6875e-06
1.68733e-06
1.66232e-06
1.66221e-06
1.66182e-06
1.65864e-06
1.65871e-06
1.65822e-06
1.65898e-06
1.66277e-06
1.66257e-06
1.6618e-06
1.65625e-06
1.65378e-06
1.65377e-06
1.65378e-06
1.65378e-06
1.65979e-06
1.66046e-06
1.65864e-06
1.65377e-06
1.65378e-06
1.65378e-06
1.65378e-06
1.65378e-06
1.65378e-06
1.66239e-06
1.66375e-06
1.66231e-06
1.65873e-06
1.65377e-06
1.65378e-06
1.65377e-06
1.65378e-06
1.65378e-06
1.65378e-06
1.66318e-06
1.66295e-06
1.66221e-06
1.65823e-06
1.65377e-06
1.65377e-06
1.65377e-06
1.65377e-06
1.65377e-06
1.65377e-06
1.66312e-06
1.6601e-06
1.65896e-06
1.65377e-06
1.65377e-06
1.65377e-06
1.65377e-06
1.65377e-06
1.65377e-06
1.66298e-06
1.66365e-06
1.66276e-06
1.65978e-06
1.65377e-06
1.65377e-06
1.65377e-06
1.65377e-06
1.66377e-06
1.6616e-06
1.6635e-06
1.66256e-06
1.66045e-06
1.66239e-06
1.66319e-06
1.66313e-06
1.66298e-06
1.6616e-06
1.66374e-06
1.66377e-06
1.66295e-06
1.6601e-06
1.66365e-06
1.66349e-06
1.63848e-06
1.63838e-06
1.63799e-06
1.63482e-06
1.63489e-06
1.63439e-06
1.63514e-06
1.63893e-06
1.63874e-06
1.63797e-06
1.63241e-06
1.62994e-06
1.62994e-06
1.62994e-06
1.62994e-06
1.63596e-06
1.63663e-06
1.6348e-06
1.62994e-06
1.62995e-06
1.62994e-06
1.62994e-06
1.62994e-06
1.62994e-06
1.63856e-06
1.63992e-06
1.63845e-06
1.63489e-06
1.62995e-06
1.62995e-06
1.62995e-06
1.62994e-06
1.62994e-06
1.62995e-06
1.63935e-06
1.63912e-06
1.63832e-06
1.63443e-06
1.62995e-06
1.62994e-06
1.62995e-06
1.62995e-06
1.62994e-06
1.62994e-06
1.63929e-06
1.63626e-06
1.63513e-06
1.62994e-06
1.62995e-06
1.62995e-06
1.62995e-06
1.62994e-06
1.62994e-06
1.63915e-06
1.63982e-06
1.63893e-06
1.63596e-06
1.62995e-06
1.62995e-06
1.62995e-06
1.62995e-06
1.63993e-06
1.63777e-06
1.63967e-06
1.63874e-06
1.63662e-06
1.63856e-06
1.63935e-06
1.6393e-06
1.63915e-06
1.63777e-06
1.63991e-06
1.63993e-06
1.63912e-06
1.63626e-06
1.63982e-06
1.63966e-06
1.61465e-06
1.61455e-06
1.61416e-06
1.61099e-06
1.61106e-06
1.61056e-06
1.61131e-06
1.6151e-06
1.6149e-06
1.61414e-06
1.60859e-06
1.60611e-06
1.60611e-06
1.60611e-06
1.60611e-06
1.61213e-06
1.6128e-06
1.61098e-06
1.60612e-06
1.60612e-06
1.60611e-06
1.60611e-06
1.60611e-06
1.60611e-06
1.61473e-06
1.61609e-06
1.61457e-06
1.61106e-06
1.60612e-06
1.60612e-06
1.60611e-06
1.60611e-06
1.60611e-06
1.60611e-06
1.61552e-06
1.61529e-06
1.61447e-06
1.61061e-06
1.60611e-06
1.60611e-06
1.60611e-06
1.60611e-06
1.60611e-06
1.60611e-06
1.61546e-06
1.61243e-06
1.61128e-06
1.60611e-06
1.60611e-06
1.60611e-06
1.60611e-06
1.60611e-06
1.60612e-06
1.61532e-06
1.61599e-06
1.61509e-06
1.61212e-06
1.60611e-06
1.60612e-06
1.60611e-06
1.60611e-06
1.6161e-06
1.61395e-06
1.61584e-06
1.61491e-06
1.61279e-06
1.61473e-06
1.61552e-06
1.61547e-06
1.61532e-06
1.61394e-06
1.61608e-06
1.6161e-06
1.61529e-06
1.61244e-06
1.61599e-06
1.61583e-06
1.59082e-06
1.59072e-06
1.59033e-06
1.58715e-06
1.58723e-06
1.58673e-06
1.58748e-06
1.59127e-06
1.59107e-06
1.59031e-06
1.58476e-06
1.58228e-06
1.58228e-06
1.58228e-06
1.58228e-06
1.5883e-06
1.58897e-06
1.58714e-06
1.58228e-06
1.58228e-06
1.58228e-06
1.58228e-06
1.58228e-06
1.58228e-06
1.5909e-06
1.59226e-06
1.59076e-06
1.5872e-06
1.58228e-06
1.58228e-06
1.58228e-06
1.58228e-06
1.58228e-06
1.58228e-06
1.59169e-06
1.59146e-06
1.5907e-06
1.58676e-06
1.58228e-06
1.58228e-06
1.58228e-06
1.58228e-06
1.58228e-06
1.58228e-06
1.59163e-06
1.5886e-06
1.58747e-06
1.58228e-06
1.58228e-06
1.58228e-06
1.58228e-06
1.58228e-06
1.58228e-06
1.59149e-06
1.59216e-06
1.59127e-06
1.5883e-06
1.58228e-06
1.58228e-06
1.58228e-06
1.58228e-06
1.59227e-06
1.59011e-06
1.59201e-06
1.59108e-06
1.58896e-06
1.5909e-06
1.59169e-06
1.59164e-06
1.59149e-06
1.59011e-06
1.59225e-06
1.59228e-06
1.59147e-06
1.58861e-06
1.59216e-06
1.592e-06
1.56699e-06
1.56689e-06
1.5665e-06
1.56332e-06
1.5634e-06
1.5629e-06
1.56365e-06
1.56744e-06
1.56724e-06
1.56648e-06
1.56093e-06
1.55845e-06
1.55845e-06
1.55845e-06
1.55845e-06
1.56447e-06
1.56514e-06
1.56332e-06
1.55845e-06
1.55845e-06
1.55845e-06
1.55845e-06
1.55845e-06
1.55845e-06
1.56707e-06
1.56843e-06
1.56698e-06
1.5634e-06
1.55845e-06
1.55845e-06
1.55845e-06
1.55845e-06
1.55845e-06
1.55845e-06
1.56786e-06
1.56763e-06
1.56688e-06
1.56292e-06
1.55845e-06
1.55845e-06
1.55845e-06
1.55845e-06
1.55845e-06
1.55845e-06
1.5678e-06
1.56477e-06
1.56365e-06
1.55845e-06
1.55845e-06
1.55845e-06
1.55845e-06
1.55845e-06
1.55845e-06
1.56766e-06
1.56833e-06
1.56744e-06
1.56447e-06
1.55845e-06
1.55845e-06
1.55845e-06
1.55845e-06
1.56844e-06
1.56628e-06
1.56818e-06
1.56724e-06
1.56513e-06
1.56707e-06
1.56786e-06
1.56781e-06
1.56766e-06
1.56628e-06
1.56842e-06
1.56844e-06
1.56763e-06
1.56477e-06
1.56834e-06
1.56817e-06
1.54316e-06
1.54306e-06
1.54267e-06
1.53949e-06
1.53957e-06
1.53907e-06
1.53982e-06
1.54361e-06
1.54341e-06
1.54265e-06
1.5371e-06
1.53462e-06
1.53462e-06
1.53462e-06
1.53462e-06
1.54063e-06
1.54131e-06
1.53949e-06
1.53462e-06
1.53462e-06
1.53462e-06
1.53462e-06
1.53462e-06
1.53462e-06
1.54324e-06
1.5446e-06
1.54315e-06
1.53957e-06
1.53462e-06
1.53462e-06
1.53462e-06
1.53462e-06
1.53462e-06
1.53462e-06
1.54403e-06
1.5438e-06
1.54305e-06
1.53908e-06
1.53462e-06
1.53462e-06
1.53462e-06
1.53462e-06
1.53462e-06
1.53462e-06
1.54397e-06
1.54094e-06
1.53982e-06
1.53462e-06
1.53462e-06
1.53462e-06
1.53462e-06
1.53462e-06
1.53462e-06
1.54383e-06
1.5445e-06
1.54361e-06
1.54064e-06
1.53462e-06
1.53462e-06
1.53462e-06
1.53462e-06
1.54461e-06
1.54245e-06
1.54435e-06
1.54341e-06
1.5413e-06
1.54324e-06