/*--------------------------------*- C++ -*----------------------------------*\
| =========                 |                                                 |
| \\      /  F ield         | OpenFOAM: The Open Source CFD Toolbox           |
|  \\    /   O peration     | Version:  v2012                                 |
|   \\  /    A nd           | Website:  www.openfoam.com                      |
|    \\/     M anipulation  |                                                 |
\*---------------------------------------------------------------------------*/
FoamFile
{
    version     2.0;
    format      ascii;
    class       volScalarField;
    location    "0.005";
    object      p;
}
// * * * * * * * * * * * * * * * * * * * * * * * * * * * * * * * * * * * * * //

dimensions      [0 2 -2 0 0 0 0];


internalField   nonuniform List<scalar> 
244288
(
0.00052626
0.000525087
0.000525319
0.000525608
0.000525619
0.000525588
0.00052528
0.000525087
0.000524951
0.000524872
0.000524859
0.000524852
0.00052486
0.000524877
0.000524967
0.000525318
0.000524871
0.000524579
0.000524432
0.000524392
0.000524445
0.000524607
0.000524921
0.000525379
0.000525606
0.000524858
0.000524432
0.00052422
0.000524161
0.000524238
0.000524472
0.000524932
0.000525728
0.000526257
0.000525617
0.000524851
0.000524391
0.00052416
0.000524096
0.00052418
0.000524435
0.000524931
0.000525729
0.000525586
0.000524859
0.000524444
0.000524237
0.000524179
0.000524254
0.000524483
0.000524931
0.000525703
0.000525278
0.000524875
0.000524606
0.000524472
0.000524434
0.000524483
0.000524632
0.000524921
0.000525331
0.000524966
0.000524919
0.000524931
0.000524929
0.00052493
0.00052492
0.000524979
0.000525377
0.000525726
0.000525727
0.000525702
0.00052533
0.000516767
0.000517184
0.000517949
0.000517077
0.000516921
0.000516923
0.000516969
0.000517608
0.000517992
0.000517948
0.000517196
0.000516159
0.00051615
0.00051615
0.000516159
0.00051701
0.000517323
0.000517077
0.000516159
0.000516186
0.000516192
0.000516192
0.000516186
0.000516159
0.000516991
0.000517349
0.000516765
0.000516921
0.00051615
0.000516192
0.000516207
0.000516207
0.000516192
0.00051615
0.00051684
0.000516925
0.000517188
0.000516923
0.00051615
0.000516192
0.000516207
0.000516207
0.000516192
0.00051615
0.000516826
0.000516904
0.000516968
0.000516159
0.000516186
0.000516192
0.000516192
0.000516186
0.000516159
0.00051689
0.000516941
0.000517608
0.00051701
0.000516159
0.00051615
0.00051615
0.000516159
0.000516836
0.000517178
0.000517576
0.000517991
0.000517323
0.00051699
0.00051684
0.000516825
0.00051689
0.000517178
0.000517786
0.000517349
0.000516925
0.000516903
0.00051694
0.000517575
0.000512249
0.0005122
0.000512202
0.000511626
0.000511578
0.000511575
0.000511594
0.00051208
0.000512202
0.000512202
0.000511515
0.000510533
0.000510533
0.000510533
0.000510533
0.000511353
0.000511632
0.000511628
0.000510534
0.000510536
0.000510537
0.000510537
0.000510536
0.000510533
0.000511444
0.000512143
0.000512256
0.000511581
0.000510534
0.000510538
0.000510539
0.000510539
0.000510537
0.000510533
0.000511386
0.000512061
0.000512209
0.000511579
0.000510534
0.000510538
0.000510539
0.000510539
0.000510537
0.000510533
0.00051138
0.000511692
0.000511597
0.000510534
0.000510537
0.000510538
0.000510538
0.000510536
0.000510533
0.000511403
0.000512092
0.000512082
0.000511355
0.000510534
0.000510534
0.000510534
0.000510534
0.000511188
0.000511545
0.000512188
0.000512204
0.000511634
0.000511446
0.000511388
0.000511382
0.000511405
0.000511546
0.000512
0.000512145
0.000512064
0.000511697
0.000512095
0.00051219
0.000506709
0.000506662
0.000506637
0.000506069
0.000506025
0.000506024
0.000506039
0.000506522
0.000506636
0.000506637
0.000505948
0.000504964
0.000504964
0.000504964
0.000504964
0.000505787
0.000506067
0.000506069
0.000504964
0.000504964
0.000504964
0.000504964
0.000504964
0.000504964
0.000505883
0.000506591
0.000506709
0.000506025
0.000504964
0.000504964
0.000504964
0.000504964
0.000504964
0.000504964
0.000505828
0.000506516
0.000506665
0.000506024
0.000504964
0.000504964
0.000504964
0.000504964
0.000504964
0.000504964
0.000505823
0.000506145
0.00050604
0.000504964
0.000504964
0.000504964
0.000504964
0.000504964
0.000504964
0.000505844
0.000506546
0.000506523
0.000505787
0.000504964
0.000504964
0.000504964
0.000504964
0.00050562
0.000505981
0.000506634
0.000506637
0.000506068
0.000505884
0.000505829
0.000505824
0.000505844
0.000505981
0.000506434
0.000506592
0.000506517
0.000506146
0.000506546
0.000506634
0.000501146
0.000501099
0.000501075
0.000500505
0.000500461
0.000500459
0.000500475
0.000500959
0.000501075
0.000501075
0.000500384
0.000499399
0.000499399
0.000499399
0.000499399
0.000500223
0.000500504
0.000500505
0.000499399
0.000499399
0.000499399
0.000499399
0.000499399
0.000499399
0.000500319
0.000501027
0.00050115
0.000500461
0.000499399
0.000499399
0.000499399
0.000499399
0.000499399
0.000499399
0.000500264
0.000500952
0.000501101
0.00050046
0.000499399
0.000499399
0.000499399
0.000499399
0.000499399
0.000499399
0.000500259
0.000500581
0.000500476
0.000499399
0.000499399
0.000499399
0.000499399
0.000499399
0.000499399
0.00050028
0.000500983
0.000500959
0.000500223
0.000499399
0.000499399
0.000499399
0.000499399
0.000500056
0.000500418
0.00050107
0.000501076
0.000500504
0.00050032
0.000500265
0.00050026
0.00050028
0.000500418
0.000500872
0.000501028
0.000500954
0.000500583
0.000500983
0.000501071
0.000495581
0.000495535
0.000495511
0.00049494
0.000494897
0.000494896
0.000494911
0.000495395
0.000495512
0.00049551
0.00049482
0.000493835
0.000493835
0.000493835
0.000493835
0.000494659
0.00049494
0.000494939
0.000493835
0.000493835
0.000493835
0.000493835
0.000493835
0.000493835
0.000494755
0.000495464
0.000495575
0.000494895
0.000493835
0.000493835
0.000493835
0.000493835
0.000493835
0.000493835
0.0004947
0.000495388
0.000495531
0.000494894
0.000493835
0.000493835
0.000493835
0.000493835
0.000493835
0.000493835
0.000494695
0.000495017
0.000494911
0.000493835
0.000493835
0.000493835
0.000493835
0.000493835
0.000493835
0.000494716
0.000495419
0.000495395
0.000494659
0.000493835
0.000493835
0.000493835
0.000493835
0.000494492
0.000494854
0.000495506
0.000495511
0.00049494
0.000494755
0.0004947
0.000494696
0.000494716
0.000494854
0.000495308
0.000495464
0.000495389
0.000495018
0.000495419
0.000495506
0.000490018
0.000489972
0.000489948
0.000489377
0.000489334
0.000489332
0.000489348
0.000489832
0.000489948
0.000489948
0.000489257
0.000488272
0.000488272
0.000488272
0.000488272
0.000489095
0.000489377
0.000489378
0.000488272
0.000488272
0.000488272
0.000488272
0.000488272
0.000488272
0.000489192
0.0004899
0.000490017
0.000489335
0.000488272
0.000488272
0.000488272
0.000488272
0.000488272
0.000488272
0.000489137
0.000489825
0.000489982
0.000489334
0.000488272
0.000488272
0.000488272
0.000488272
0.000488272
0.000488272
0.000489132
0.000489454
0.00048935
0.000488272
0.000488272
0.000488272
0.000488272
0.000488272
0.000488272
0.000489153
0.000489855
0.000489833
0.000489096
0.000488272
0.000488272
0.000488272
0.000488272
0.000488928
0.00048929
0.000489943
0.000489949
0.000489377
0.000489192
0.000489136
0.000489132
0.000489152
0.00048929
0.000489744
0.0004899
0.000489824
0.000489453
0.000489855
0.000489942
0.000484455
0.000484408
0.000484384
0.000483814
0.00048377
0.000483769
0.000483785
0.000484268
0.000484385
0.000484385
0.000483694
0.000482708
0.000482708
0.000482708
0.000482708
0.000483532
0.000483813
0.000483814
0.000482708
0.000482708
0.000482708
0.000482708
0.000482708
0.000482708
0.000483629
0.000484337
0.000484455
0.000483771
0.000482708
0.000482708
0.000482708
0.000482708
0.000482708
0.000482708
0.000483573
0.000484262
0.000484411
0.00048377
0.000482708
0.000482708
0.000482708
0.000482708
0.000482708
0.000482708
0.000483569
0.000483891
0.000483785
0.000482708
0.000482708
0.000482708
0.000482708
0.000482708
0.000482708
0.000483589
0.000484292
0.000484269
0.000483532
0.000482708
0.000482708
0.000482708
0.000482708
0.000483365
0.000483727
0.000484379
0.000484385
0.000483814
0.000483629
0.000483573
0.000483569
0.000483589
0.000483727
0.000484181
0.000484337
0.000484261
0.000483891
0.000484292
0.000484379
0.000478892
0.000478845
0.000478821
0.000478251
0.000478207
0.000478206
0.000478221
0.000478705
0.000478822
0.00047882
0.00047813
0.000477145
0.000477145
0.000477145
0.000477145
0.000477969
0.00047825
0.00047825
0.000477145
0.000477145
0.000477145
0.000477145
0.000477145
0.000477145
0.000478065
0.000478773
0.000478893
0.000478206
0.000477145
0.000477145
0.000477145
0.000477145
0.000477145
0.000477145
0.00047801
0.000478698
0.000478839
0.000478204
0.000477144
0.000477145
0.000477145
0.000477145
0.000477145
0.000477145
0.000478005
0.000478327
0.00047822
0.000477144
0.000477145
0.000477145
0.000477145
0.000477145
0.000477145
0.000478026
0.000478728
0.000478704
0.000477968
0.000477145
0.000477145
0.000477145
0.000477145
0.000477802
0.000478163
0.000478816
0.000478821
0.00047825
0.000478065
0.00047801
0.000478005
0.000478026
0.000478163
0.000478618
0.000478773
0.000478698
0.000478327
0.000478728
0.000478816
0.000473329
0.000473282
0.000473258
0.000472688
0.000472644
0.000472643
0.000472659
0.000473142
0.000473259
0.000473259
0.000472568
0.000471583
0.000471583
0.000471583
0.000471583
0.000472406
0.000472687
0.000472689
0.000471583
0.000471583
0.000471583
0.000471583
0.000471583
0.000471582
0.000472503
0.000473211
0.000473331
0.000472645
0.000471583
0.000471583
0.000471583
0.000471583
0.000471582
0.000471582
0.000472447
0.000473136
0.00047328
0.000472644
0.000471583
0.000471583
0.000471583
0.000471583
0.000471582
0.000471582
0.000472443
0.000472765
0.000472659
0.000471583
0.000471583
0.000471583
0.000471582
0.000471582
0.000471582
0.000472463
0.000473166
0.000473142
0.000472406
0.000471583
0.000471582
0.000471582
0.000471582
0.000472239
0.000472601
0.000473253
0.000473258
0.000472687
0.000472503
0.000472447
0.000472443
0.000472463
0.000472601
0.000473055
0.000473211
0.000473136
0.000472765
0.000473166
0.000473253
0.000467766
0.000467719
0.000467696
0.000467125
0.000467081
0.00046708
0.000467096
0.000467579
0.000467696
0.000467696
0.000467005
0.00046602
0.000466019
0.000466019
0.000466019
0.000466843
0.000467124
0.000467126
0.00046602
0.00046602
0.000466019
0.000466019
0.000466019
0.000466019
0.00046694
0.000467648
0.000467767
0.000467082
0.00046602
0.00046602
0.000466019
0.000466019
0.000466019
0.000466019
0.000466885
0.000467573
0.000467722
0.00046708
0.00046602
0.00046602
0.000466019
0.000466019
0.000466019
0.000466019
0.00046688
0.000467202
0.000467096
0.00046602
0.00046602
0.000466019
0.000466019
0.000466019
0.000466019
0.0004669
0.000467603
0.00046758
0.000466843
0.00046602
0.00046602
0.000466019
0.000466019
0.000466676
0.000467038
0.000467691
0.000467696
0.000467125
0.00046694
0.000466884
0.00046688
0.0004669
0.000467038
0.000467492
0.000467648
0.000467573
0.000467201
0.000467603
0.00046769
0.000462203
0.000462156
0.000462132
0.000461562
0.000461518
0.000461516
0.000461532
0.000462016
0.000462132
0.000462132
0.000461441
0.000460456
0.000460456
0.000460456
0.000460456
0.00046128
0.000461561
0.000461561
0.000460456
0.000460456
0.000460456
0.000460456
0.000460456
0.000460456
0.000461376
0.000462084
0.000462203
0.000461518
0.000460456
0.000460456
0.000460456
0.000460456
0.000460456
0.000460456
0.000461321
0.000462008
0.000462156
0.000461516
0.000460456
0.000460456
0.000460456
0.000460456
0.000460456
0.000460456
0.000461316
0.000461638
0.000461532
0.000460456
0.000460456
0.000460456
0.000460456
0.000460456
0.000460456
0.000461337
0.000462039
0.000462016
0.00046128
0.000460456
0.000460456
0.000460456
0.000460456
0.000461112
0.000461474
0.000462127
0.000462133
0.000461561
0.000461376
0.000461321
0.000461316
0.000461337
0.000461474
0.000461929
0.000462085
0.00046201
0.000461638
0.00046204
0.000462127
0.000456639
0.000456592
0.000456568
0.000455998
0.000455954
0.000455953
0.000455969
0.000456452
0.000456569
0.000456568
0.000455877
0.000454892
0.000454892
0.000454892
0.000454892
0.000455716
0.000455997
0.000455997
0.000454892
0.000454892
0.000454892
0.000454892
0.000454892
0.000454892
0.000455813
0.000456521
0.000456641
0.000455954
0.000454892
0.000454892
0.000454892
0.000454892
0.000454892
0.000454892
0.000455757
0.000456446
0.000456594
0.000455952
0.000454892
0.000454892
0.000454892
0.000454892
0.000454892
0.000454892
0.000455753
0.000456075
0.000455968
0.000454892
0.000454892
0.000454892
0.000454893
0.000454893
0.000454893
0.000455773
0.000456476
0.000456452
0.000455716
0.000454893
0.000454893
0.000454893
0.000454893
0.000455549
0.000455911
0.000456564
0.000456569
0.000455998
0.000455813
0.000455758
0.000455753
0.000455774
0.000455911
0.000456366
0.000456521
0.000456447
0.000456076
0.000456477
0.000456564
0.000451075
0.000451029
0.000451004
0.000450434
0.000450391
0.000450389
0.000450405
0.000450889
0.000451005
0.000451004
0.000450314
0.000449329
0.000449329
0.000449329
0.000449329
0.000450152
0.000450434
0.000450434
0.000449329
0.000449329
0.000449329
0.000449329
0.000449329
0.000449329
0.000450249
0.000450957
0.00045107
0.00045039
0.000449329
0.000449329
0.000449329
0.000449329
0.000449329
0.000449329
0.000450194
0.000450882
0.000451023
0.000450389
0.000449329
0.000449329
0.000449329
0.000449329
0.000449329
0.000449329
0.000450189
0.000450511
0.000450405
0.000449329
0.000449329
0.000449329
0.000449329
0.000449329
0.000449329
0.00045021
0.000450912
0.000450889
0.000450153
0.000449329
0.000449329
0.000449329
0.000449329
0.000449985
0.000450347
0.000451
0.000451006
0.000450434
0.000450249
0.000450194
0.00045019
0.00045021
0.000450347
0.000450802
0.000450958
0.000450883
0.000450512
0.000450913
0.000451
0.000445512
0.000445465
0.000445441
0.000444871
0.000444827
0.000444825
0.000444841
0.000445325
0.000445441
0.000445442
0.000444751
0.000443765
0.000443765
0.000443765
0.000443765
0.000444589
0.00044487
0.000444871
0.000443765
0.000443765
0.000443765
0.000443765
0.000443765
0.000443765
0.000444685
0.000445393
0.000445511
0.000444828
0.000443765
0.000443765
0.000443765
0.000443765
0.000443765
0.000443765
0.00044463
0.000445318
0.000445472
0.000444827
0.000443765
0.000443765
0.000443765
0.000443765
0.000443765
0.000443765
0.000444625
0.000444947
0.000444843
0.000443765
0.000443765
0.000443765
0.000443765
0.000443765
0.000443765
0.000444646
0.000445349
0.000445327
0.000444589
0.000443765
0.000443765
0.000443765
0.000443765
0.000444421
0.000444783
0.000445436
0.000445442
0.00044487
0.000444685
0.00044463
0.000444625
0.000444646
0.000444783
0.000445238
0.000445394
0.000445318
0.000444947
0.000445348
0.000445436
0.000439947
0.000439901
0.000439877
0.000439306
0.000439263
0.000439261
0.000439277
0.000439761
0.000439877
0.000439877
0.000439186
0.000438201
0.000438201
0.000438201
0.000438201
0.000439025
0.000439306
0.000439307
0.000438201
0.000438201
0.000438201
0.000438201
0.000438201
0.000438201
0.000439121
0.000439829
0.000439949
0.000439263
0.000438201
0.000438201
0.000438201
0.000438201
0.000438201
0.000438201
0.000439066
0.000439754
0.000439899
0.000439262
0.000438201
0.000438201
0.000438201
0.000438201
0.000438201
0.000438201
0.000439061
0.000439383
0.000439277
0.000438201
0.000438201
0.000438201
0.000438201
0.000438201
0.000438201
0.000439082
0.000439784
0.000439761
0.000439024
0.0004382
0.0004382
0.0004382
0.0004382
0.000438857
0.000439219
0.000439872
0.000439877
0.000439306
0.000439121
0.000439065
0.000439061
0.000439081
0.000439219
0.000439674
0.000439829
0.000439753
0.000439382
0.000439783
0.000439871
0.000434383
0.000434337
0.000434312
0.000433742
0.000433698
0.000433697
0.000433713
0.000434197
0.000434313
0.000434312
0.000433622
0.000432636
0.000432637
0.000432637
0.000432637
0.00043346
0.000433742
0.000433742
0.000432636
0.000432636
0.000432636
0.000432637
0.000432637
0.000432637
0.000433557
0.000434265
0.00043438
0.000433698
0.000432636
0.000432636
0.000432636
0.000432636
0.000432637
0.000432637
0.000433502
0.00043419
0.000434335
0.000433696
0.000432636
0.000432636
0.000432636
0.000432636
0.000432636
0.000432637
0.000433497
0.000433819
0.000433712
0.000432636
0.000432636
0.000432636
0.000432636
0.000432636
0.000432636
0.000433518
0.00043422
0.000434196
0.00043346
0.000432636
0.000432636
0.000432636
0.000432636
0.000433293
0.000433655
0.000434308
0.000434313
0.000433741
0.000433556
0.000433501
0.000433496
0.000433517
0.000433655
0.00043411
0.000434265
0.00043419
0.000433819
0.00043422
0.000434308
0.00042882
0.000428773
0.000428749
0.000428178
0.000428135
0.000428133
0.000428149
0.000428633
0.000428749
0.000428749
0.000428058
0.000427073
0.000427073
0.000427073
0.000427073
0.000427897
0.000428178
0.000428178
0.000427073
0.000427073
0.000427073
0.000427073
0.000427073
0.000427073
0.000427993
0.000428701
0.000428819
0.000428135
0.000427073
0.000427073
0.000427073
0.000427073
0.000427073
0.000427073
0.000427938
0.000428626
0.000428773
0.000428133
0.000427073
0.000427073
0.000427073
0.000427073
0.000427073
0.000427073
0.000427933
0.000428255
0.000428149
0.000427073
0.000427073
0.000427073
0.000427073
0.000427073
0.000427073
0.000427954
0.000428656
0.000428632
0.000427896
0.000427072
0.000427072
0.000427073
0.000427073
0.000427729
0.000428091
0.000428744
0.000428749
0.000428177
0.000427992
0.000427936
0.000427932
0.000427953
0.000428091
0.000428546
0.000428699
0.000428623
0.000428252
0.000428655
0.000428743
0.000423255
0.000423209
0.000423185
0.000422615
0.000422571
0.00042257
0.000422586
0.000423069
0.000423186
0.000423185
0.000422495
0.000421509
0.000421509
0.000421509
0.000421509
0.000422333
0.000422614
0.000422615
0.000421509
0.000421509
0.000421509
0.000421509
0.000421509
0.000421509
0.00042243
0.000423138
0.000423258
0.000422572
0.000421509
0.000421509
0.000421509
0.000421509
0.000421509
0.000421509
0.000422374
0.000423063
0.000423213
0.000422571
0.000421509
0.000421509
0.000421509
0.000421509
0.000421509
0.000421509
0.00042237
0.000422692
0.000422586
0.000421509
0.000421509
0.000421509
0.000421509
0.000421509
0.000421509
0.00042239
0.000423093
0.00042307
0.000422333
0.000421509
0.000421509
0.000421509
0.000421509
0.000422166
0.000422528
0.00042318
0.000423186
0.000422615
0.00042243
0.000422375
0.000422371
0.000422391
0.000422528
0.000422983
0.000423139
0.000423064
0.000422695
0.000423096
0.000423182
0.000417692
0.000417645
0.000417621
0.000417051
0.000417007
0.000417006
0.000417022
0.000417506
0.000417622
0.000417621
0.000416931
0.000415945
0.000415945
0.000415945
0.000415945
0.000416769
0.000417051
0.000417051
0.000415945
0.000415945
0.000415945
0.000415945
0.000415945
0.000415945
0.000416866
0.000417574
0.000417693
0.000417007
0.000415945
0.000415945
0.000415945
0.000415945
0.000415945
0.000415945
0.00041681
0.000417499
0.000417647
0.000417006
0.000415945
0.000415945
0.000415945
0.000415945
0.000415945
0.000415945
0.000416806
0.000417128
0.000417022
0.000415945
0.000415945
0.000415945
0.000415945
0.000415945
0.000415945
0.000416826
0.000417529
0.000417505
0.000416769
0.000415945
0.000415945
0.000415945
0.000415945
0.000416601
0.000416963
0.000417616
0.000417622
0.00041705
0.000416865
0.000416809
0.000416804
0.000416825
0.000416963
0.000417418
0.000417572
0.000417497
0.000417125
0.000417526
0.000417615
0.000412129
0.000412082
0.000412058
0.000411488
0.000411444
0.000411443
0.000411458
0.000411942
0.000412058
0.000412058
0.000411367
0.000410382
0.000410382
0.000410382
0.000410382
0.000411206
0.000411487
0.000411487
0.000410382
0.000410382
0.000410382
0.000410382
0.000410382
0.000410382
0.000411302
0.00041201
0.000412128
0.000411443
0.000410382
0.000410382
0.000410382
0.000410382
0.000410382
0.000410382
0.000411247
0.000411935
0.000412082
0.000411442
0.000410382
0.000410382
0.000410382
0.000410382
0.000410382
0.000410382
0.000411242
0.000411564
0.000411458
0.000410382
0.000410382
0.000410382
0.000410382
0.000410382
0.000410382
0.000411263
0.000411965
0.000411942
0.000411206
0.000410382
0.000410382
0.000410382
0.000410382
0.000411038
0.0004114
0.000412053
0.000412058
0.000411487
0.000411303
0.000411248
0.000411243
0.000411263
0.0004114
0.000411855
0.000412011
0.000411938
0.000411566
0.000411965
0.000412052
0.000406566
0.000406519
0.000406495
0.000405924
0.000405881
0.000405879
0.000405895
0.000406379
0.000406495
0.000406495
0.000405804
0.000404819
0.000404819
0.000404819
0.000404819
0.000405643
0.000405924
0.000405924
0.000404819
0.000404819
0.000404819
0.000404819
0.000404819
0.000404819
0.000405739
0.000406447
0.000406565
0.000405881
0.000404819
0.000404819
0.000404819
0.000404819
0.000404819
0.000404819
0.000405684
0.000406372
0.000406518
0.000405879
0.000404819
0.000404819
0.000404819
0.000404819
0.000404819
0.000404819
0.000405679
0.000406001
0.000405895
0.000404819
0.000404819
0.000404819
0.000404819
0.000404819
0.000404819
0.0004057
0.000406402
0.000406379
0.000405643
0.000404819
0.000404819
0.000404819
0.000404819
0.000405476
0.000405837
0.00040649
0.000406495
0.000405924
0.000405739
0.000405683
0.000405679
0.0004057
0.000405837
0.000406292
0.000406446
0.00040637
0.000405999
0.000406403
0.00040649
0.000401003
0.000400957
0.000400932
0.000400362
0.000400318
0.000400317
0.000400333
0.000400816
0.000400933
0.000400932
0.000400241
0.000399256
0.000399256
0.000399256
0.000399256
0.00040008
0.000400361
0.000400361
0.000399256
0.000399256
0.000399256
0.000399256
0.000399256
0.000399256
0.000400176
0.000400885
0.000401001
0.000400317
0.000399256
0.000399256
0.000399256
0.000399256
0.000399256
0.000399256
0.000400121
0.000400809
0.000400955
0.000400316
0.000399256
0.000399256
0.000399256
0.000399256
0.000399256
0.000399256
0.000400117
0.000400439
0.000400332
0.000399256
0.000399256
0.000399256
0.000399256
0.000399256
0.000399256
0.000400137
0.00040084
0.000400816
0.00040008
0.000399256
0.000399257
0.000399257
0.000399257
0.000399913
0.000400275
0.000400927
0.000400933
0.000400361
0.000400177
0.000400122
0.000400118
0.000400139
0.000400275
0.00040073
0.000400886
0.000400812
0.000400443
0.000400843
0.000400929
0.000395439
0.000395392
0.000395369
0.000394798
0.000394755
0.000394753
0.000394769
0.000395253
0.000395369
0.000395369
0.000394678
0.000393693
0.000393693
0.000393693
0.000393693
0.000394516
0.000394798
0.000394798
0.000393693
0.000393693
0.000393693
0.000393693
0.000393693
0.000393693
0.000394613
0.000395321
0.00039544
0.000394755
0.000393693
0.000393693
0.000393692
0.000393692
0.000393692
0.000393692
0.000394558
0.000395246
0.000395393
0.000394754
0.000393693
0.000393692
0.000393692
0.000393692
0.000393692
0.000393692
0.000394553
0.000394875
0.000394769
0.000393692
0.000393692
0.000393692
0.000393692
0.000393692
0.000393692
0.000394573
0.000395276
0.000395253
0.000394516
0.000393692
0.000393692
0.000393692
0.000393692
0.000394349
0.000394711
0.000395364
0.000395369
0.000394797
0.000394612
0.000394557
0.000394552
0.000394572
0.00039471
0.000395165
0.000395321
0.000395245
0.000394873
0.000395275
0.000395363
0.000389875
0.000389827
0.000389805
0.000389234
0.00038919
0.000389189
0.000389205
0.000389689
0.000389805
0.000389805
0.000389114
0.000388129
0.000388129
0.000388129
0.000388129
0.000388953
0.000389234
0.000389234
0.000388129
0.000388129
0.000388129
0.000388129
0.000388129
0.000388129
0.000389049
0.000389758
0.000389874
0.00038919
0.000388129
0.000388129
0.000388129
0.000388129
0.000388129
0.000388129
0.000388994
0.000389682
0.000389825
0.000389189
0.000388129
0.000388129
0.000388129
0.000388129
0.000388129
0.000388129
0.000388989
0.000389311
0.000389205
0.000388129
0.000388129
0.000388129
0.000388129
0.000388129
0.000388129
0.00038901
0.000389713
0.000389689
0.000388953
0.00038813
0.00038813
0.000388129
0.000388129
0.000388786
0.000389147
0.0003898
0.000389806
0.000389234
0.00038905
0.000388995
0.00038899
0.00038901
0.000389147
0.000389602
0.000389758
0.000389683
0.000389313
0.000389712
0.0003898
0.00038431
0.000384262
0.000384241
0.000383671
0.000383627
0.000383625
0.000383641
0.000384125
0.000384241
0.000384241
0.00038355
0.000382565
0.000382565
0.000382565
0.000382565
0.000383389
0.00038367
0.000383671
0.000382565
0.000382565
0.000382565
0.000382565
0.000382565
0.000382565
0.000383485
0.000384194
0.000384312
0.000383627
0.000382565
0.000382565
0.000382565
0.000382565
0.000382565
0.000382565
0.00038343
0.000384119
0.000384265
0.000383626
0.000382565
0.000382565
0.000382565
0.000382565
0.000382565
0.000382565
0.000383426
0.000383748
0.000383642
0.000382565
0.000382565
0.000382565
0.000382565
0.000382565
0.000382565
0.000383446
0.000384149
0.000384126
0.000383389
0.000382566
0.000382566
0.000382566
0.000382566
0.000383222
0.000383584
0.000384237
0.000384242
0.000383671
0.000383486
0.000383431
0.000383426
0.000383447
0.000383584
0.000384039
0.000384195
0.00038412
0.000383748
0.000384149
0.000384237
0.000378748
0.000378702
0.000378677
0.000378107
0.000378063
0.000378062
0.000378078
0.000378562
0.000378678
0.000378677
0.000377987
0.000377002
0.000377002
0.000377002
0.000377002
0.000377825
0.000378107
0.000378107
0.000377002
0.000377002
0.000377002
0.000377002
0.000377002
0.000377002
0.000377922
0.00037863
0.000378748
0.000378063
0.000377002
0.000377002
0.000377002
0.000377002
0.000377002
0.000377002
0.000377867
0.000378555
0.000378701
0.000378062
0.000377002
0.000377002
0.000377002
0.000377002
0.000377002
0.000377002
0.000377862
0.000378184
0.000378078
0.000377002
0.000377002
0.000377002
0.000377002
0.000377002
0.000377002
0.000377883
0.000378585
0.000378562
0.000377825
0.000377002
0.000377002
0.000377002
0.000377002
0.000377658
0.00037802
0.000378673
0.000378678
0.000378107
0.000377922
0.000377867
0.000377862
0.000377883
0.00037802
0.000378475
0.00037863
0.000378555
0.000378184
0.000378585
0.000378673
0.000373185
0.000373138
0.000373114
0.000372544
0.0003725
0.000372499
0.000372515
0.000372998
0.000373115
0.000373114
0.000372423
0.000371438
0.000371438
0.000371438
0.000371438
0.000372262
0.000372543
0.000372544
0.000371438
0.000371438
0.000371438
0.000371438
0.000371438
0.000371438
0.000372359
0.000373067
0.000373186
0.0003725
0.000371438
0.000371438
0.000371438
0.000371438
0.000371438
0.000371438
0.000372303
0.000372992
0.00037314
0.000372498
0.000371438
0.000371438
0.000371438
0.000371438
0.000371438
0.000371438
0.000372299
0.000372621
0.000372514
0.000371438
0.000371438
0.000371438
0.000371438
0.000371438
0.000371438
0.000372319
0.000373022
0.000372998
0.000372262
0.000371438
0.000371438
0.000371438
0.000371438
0.000372095
0.000372457
0.000373109
0.000373115
0.000372543
0.000372359
0.000372304
0.000372299
0.000372319
0.000372457
0.000372911
0.000373067
0.000372992
0.000372622
0.000373022
0.00037311
0.000367621
0.000367575
0.000367551
0.000366981
0.000366937
0.000366935
0.000366951
0.000367435
0.000367551
0.000367551
0.00036686
0.000365875
0.000365875
0.000365875
0.000365875
0.000366699
0.00036698
0.00036698
0.000365875
0.000365875
0.000365875
0.000365875
0.000365875
0.000365875
0.000366795
0.000367504
0.00036762
0.000366936
0.000365875
0.000365875
0.000365875
0.000365875
0.000365875
0.000365875
0.00036674
0.000367428
0.000367563
0.000366934
0.000365875
0.000365875
0.000365875
0.000365875
0.000365875
0.000365875
0.000366735
0.000367058
0.00036695
0.000365875
0.000365875
0.000365875
0.000365875
0.000365875
0.000365875
0.000366756
0.000367459
0.000367434
0.000366698
0.000365875
0.000365875
0.000365875
0.000365875
0.000366531
0.000366893
0.000367546
0.00036755
0.000366979
0.000366795
0.000366739
0.000366735
0.000366756
0.000366893
0.000367348
0.000367503
0.000367427
0.000367056
0.000367458
0.000367546
0.000362058
0.000362011
0.000361988
0.000361417
0.000361373
0.000361372
0.000361388
0.000361872
0.000361988
0.000361988
0.000361297
0.000360312
0.000360312
0.000360312
0.000360312
0.000361135
0.000361417
0.000361418
0.000360312
0.000360312
0.000360312
0.000360312
0.000360312
0.000360311
0.000361232
0.00036194
0.000362065
0.000361375
0.000360312
0.000360312
0.000360312
0.000360312
0.000360312
0.000360311
0.000361177
0.000361865
0.000362017
0.000361374
0.000360312
0.000360312
0.000360312
0.000360312
0.000360311
0.000360311
0.000361172
0.000361494
0.000361389
0.000360312
0.000360312
0.000360312
0.000360312
0.000360311
0.000360311
0.000361192
0.000361895
0.000361872
0.000361136
0.000360312
0.000360312
0.000360312
0.000360311
0.000360968
0.00036133
0.000361983
0.000361988
0.000361417
0.000361232
0.000361177
0.000361172
0.000361192
0.00036133
0.000361784
0.00036194
0.000361865
0.000361494
0.000361895
0.000361983
0.000356494
0.000356448
0.000356424
0.000355854
0.00035581
0.000355808
0.000355824
0.000356308
0.000356424
0.000356424
0.000355733
0.000354748
0.000354748
0.000354748
0.000354748
0.000355572
0.000355853
0.000355854
0.000354748
0.000354748
0.000354748
0.000354748
0.000354748
0.000354748
0.000355668
0.000356376
0.000356495
0.00035581
0.000354748
0.000354748
0.000354748
0.000354748
0.000354748
0.000354748
0.000355613
0.000356301
0.000356448
0.000355809
0.000354748
0.000354748
0.000354748
0.000354748
0.000354748
0.000354748
0.000355608
0.00035593
0.000355825
0.000354748
0.000354748
0.000354748
0.000354748
0.000354748
0.000354748
0.000355629
0.000356331
0.000356308
0.000355572
0.000354748
0.000354748
0.000354748
0.000354748
0.000355404
0.000355766
0.000356419
0.000356425
0.000355853
0.000355668
0.000355613
0.000355608
0.000355629
0.000355766
0.000356221
0.000356377
0.000356301
0.00035593
0.000356331
0.000356419
0.000350931
0.000350884
0.00035086
0.00035029
0.000350246
0.000350245
0.000350261
0.000350744
0.000350861
0.00035086
0.00035017
0.000349184
0.000349184
0.000349184
0.000349184
0.000350008
0.000350289
0.00035029
0.000349184
0.000349184
0.000349184
0.000349184
0.000349184
0.000349184
0.000350104
0.000350813
0.000350931
0.000350246
0.000349184
0.000349184
0.000349184
0.000349184
0.000349184
0.000349184
0.000350049
0.000350737
0.000350883
0.000350244
0.000349184
0.000349184
0.000349184
0.000349184
0.000349184
0.000349184
0.000350045
0.000350367
0.00035026
0.000349184
0.000349184
0.000349184
0.000349184
0.000349184
0.000349184
0.000350065
0.000350768
0.000350744
0.000350008
0.000349184
0.000349184
0.000349184
0.000349184
0.000349841