/*--------------------------------*- C++ -*----------------------------------*\
| =========                 |                                                 |
| \\      /  F ield         | OpenFOAM: The Open Source CFD Toolbox           |
|  \\    /   O peration     | Version:  v2012                                 |
|   \\  /    A nd           | Website:  www.openfoam.com                      |
|    \\/     M anipulation  |                                                 |
\*---------------------------------------------------------------------------*/
FoamFile
{
    version     2.0;
    format      ascii;
    class       volScalarField;
    location    "10.5";
    object      p;
}
// * * * * * * * * * * * * * * * * * * * * * * * * * * * * * * * * * * * * * //

dimensions      [0 2 -2 0 0 0 0];


internalField   nonuniform List<scalar> 
244288
(
1.54962e-06
1.54986e-06
1.54982e-06
1.54968e-06
1.54962e-06
1.5497e-06
1.54982e-06
1.54986e-06
1.54988e-06
1.54964e-06
1.54936e-06
1.54926e-06
1.54939e-06
1.54968e-06
1.54989e-06
1.54981e-06
1.54964e-06
1.54922e-06
1.54884e-06
1.54872e-06
1.54888e-06
1.54927e-06
1.54969e-06
1.54981e-06
1.54968e-06
1.54936e-06
1.54884e-06
1.54843e-06
1.54829e-06
1.54847e-06
1.54891e-06
1.54942e-06
1.54969e-06
1.54962e-06
1.54962e-06
1.54926e-06
1.54872e-06
1.54829e-06
1.54815e-06
1.54833e-06
1.54878e-06
1.54932e-06
1.54963e-06
1.5497e-06
1.54939e-06
1.54888e-06
1.54847e-06
1.54833e-06
1.54851e-06
1.54894e-06
1.54945e-06
1.54971e-06
1.54983e-06
1.54968e-06
1.54927e-06
1.54891e-06
1.54878e-06
1.54894e-06
1.54933e-06
1.54972e-06
1.54982e-06
1.54989e-06
1.54969e-06
1.54942e-06
1.54932e-06
1.54945e-06
1.54972e-06
1.54989e-06
1.54981e-06
1.54969e-06
1.54963e-06
1.54971e-06
1.54982e-06
1.52547e-06
1.52507e-06
1.5248e-06
1.52335e-06
1.52327e-06
1.52326e-06
1.52329e-06
1.52472e-06
1.52487e-06
1.5248e-06
1.52292e-06
1.52038e-06
1.52038e-06
1.52038e-06
1.52038e-06
1.52291e-06
1.52338e-06
1.52335e-06
1.52038e-06
1.52032e-06
1.52035e-06
1.52035e-06
1.52032e-06
1.52038e-06
1.52327e-06
1.52499e-06
1.52547e-06
1.52327e-06
1.52038e-06
1.52035e-06
1.5204e-06
1.5204e-06
1.52035e-06
1.52038e-06
1.52318e-06
1.52472e-06
1.52507e-06
1.52326e-06
1.52038e-06
1.52035e-06
1.5204e-06
1.5204e-06
1.52035e-06
1.52038e-06
1.52314e-06
1.52355e-06
1.52329e-06
1.52038e-06
1.52032e-06
1.52035e-06
1.52035e-06
1.52032e-06
1.52038e-06
1.52322e-06
1.52484e-06
1.52472e-06
1.52291e-06
1.52038e-06
1.52038e-06
1.52038e-06
1.52038e-06
1.52276e-06
1.52339e-06
1.52501e-06
1.52487e-06
1.52338e-06
1.52327e-06
1.52318e-06
1.52314e-06
1.52322e-06
1.52339e-06
1.52496e-06
1.52499e-06
1.52472e-06
1.52355e-06
1.52484e-06
1.52501e-06
1.50915e-06
1.50901e-06
1.50893e-06
1.50734e-06
1.50725e-06
1.50722e-06
1.50729e-06
1.50882e-06
1.50902e-06
1.50893e-06
1.50691e-06
1.50417e-06
1.50416e-06
1.50416e-06
1.50417e-06
1.5069e-06
1.50749e-06
1.50734e-06
1.50417e-06
1.50414e-06
1.50414e-06
1.50414e-06
1.50414e-06
1.50417e-06
1.50734e-06
1.50906e-06
1.50915e-06
1.50725e-06
1.50416e-06
1.50414e-06
1.50414e-06
1.50414e-06
1.50414e-06
1.50416e-06
1.50724e-06
1.50879e-06
1.50901e-06
1.50722e-06
1.50416e-06
1.50414e-06
1.50414e-06
1.50414e-06
1.50414e-06
1.50416e-06
1.5072e-06
1.50758e-06
1.50729e-06
1.50417e-06
1.50414e-06
1.50414e-06
1.50414e-06
1.50414e-06
1.50417e-06
1.50729e-06
1.50895e-06
1.50882e-06
1.5069e-06
1.50417e-06
1.50416e-06
1.50416e-06
1.50417e-06
1.50682e-06
1.50744e-06
1.5091e-06
1.50902e-06
1.50749e-06
1.50734e-06
1.50724e-06
1.5072e-06
1.50729e-06
1.50745e-06
1.50887e-06
1.50906e-06
1.50879e-06
1.50759e-06
1.50895e-06
1.5091e-06
1.49301e-06
1.49287e-06
1.49279e-06
1.49117e-06
1.49108e-06
1.49104e-06
1.49113e-06
1.49267e-06
1.49289e-06
1.49279e-06
1.49071e-06
1.48797e-06
1.48796e-06
1.48796e-06
1.48797e-06
1.49072e-06
1.49132e-06
1.49117e-06
1.48797e-06
1.48796e-06
1.48796e-06
1.48796e-06
1.48796e-06
1.48797e-06
1.4912e-06
1.49292e-06
1.49301e-06
1.49108e-06
1.48796e-06
1.48796e-06
1.48796e-06
1.48796e-06
1.48796e-06
1.48796e-06
1.49112e-06
1.49266e-06
1.49287e-06
1.49104e-06
1.48796e-06
1.48796e-06
1.48796e-06
1.48796e-06
1.48796e-06
1.48796e-06
1.49108e-06
1.49145e-06
1.49113e-06
1.48797e-06
1.48796e-06
1.48796e-06
1.48796e-06
1.48796e-06
1.48797e-06
1.49116e-06
1.49282e-06
1.49267e-06
1.49072e-06
1.48797e-06
1.48796e-06
1.48796e-06
1.48797e-06
1.49069e-06
1.4913e-06
1.49296e-06
1.49289e-06
1.49132e-06
1.4912e-06
1.49112e-06
1.49108e-06
1.49116e-06
1.4913e-06
1.4929e-06
1.49292e-06
1.49266e-06
1.49145e-06
1.49282e-06
1.49296e-06
1.47684e-06
1.4767e-06
1.47661e-06
1.47499e-06
1.47489e-06
1.47486e-06
1.47495e-06
1.47649e-06
1.47672e-06
1.47661e-06
1.47452e-06
1.47178e-06
1.47178e-06
1.47178e-06
1.47178e-06
1.47453e-06
1.47514e-06
1.47499e-06
1.47178e-06
1.47178e-06
1.47178e-06
1.47178e-06
1.47178e-06
1.47178e-06
1.47502e-06
1.47674e-06
1.47684e-06
1.47489e-06
1.47178e-06
1.47178e-06
1.47178e-06
1.47178e-06
1.47178e-06
1.47178e-06
1.47495e-06
1.47648e-06
1.4767e-06
1.47486e-06
1.47178e-06
1.47178e-06
1.47178e-06
1.47178e-06
1.47178e-06
1.47178e-06
1.47491e-06
1.47528e-06
1.47495e-06
1.47178e-06
1.47178e-06
1.47178e-06
1.47178e-06
1.47178e-06
1.47178e-06
1.47498e-06
1.47664e-06
1.47649e-06
1.47453e-06
1.47178e-06
1.47178e-06
1.47178e-06
1.47178e-06
1.47452e-06
1.47513e-06
1.47678e-06
1.47672e-06
1.47514e-06
1.47502e-06
1.47495e-06
1.47491e-06
1.47498e-06
1.47513e-06
1.47673e-06
1.47674e-06
1.47648e-06
1.47528e-06
1.47664e-06
1.47678e-06
1.46066e-06
1.46052e-06
1.46043e-06
1.45881e-06
1.45871e-06
1.45867e-06
1.45877e-06
1.46031e-06
1.46053e-06
1.46043e-06
1.45833e-06
1.45559e-06
1.45559e-06
1.45559e-06
1.45559e-06
1.45834e-06
1.45896e-06
1.45881e-06
1.45559e-06
1.45559e-06
1.45559e-06
1.45559e-06
1.45559e-06
1.45559e-06
1.45884e-06
1.46056e-06
1.46066e-06
1.45871e-06
1.45559e-06
1.45559e-06
1.45559e-06
1.45559e-06
1.45559e-06
1.45559e-06
1.45877e-06
1.4603e-06
1.46052e-06
1.45867e-06
1.45559e-06
1.45559e-06
1.45559e-06
1.45559e-06
1.45559e-06
1.45559e-06
1.45873e-06
1.4591e-06
1.45877e-06
1.45559e-06
1.45559e-06
1.45559e-06
1.45559e-06
1.45559e-06
1.45559e-06
1.4588e-06
1.46046e-06
1.46031e-06
1.45834e-06
1.45559e-06
1.45559e-06
1.45559e-06
1.45559e-06
1.45834e-06
1.45895e-06
1.4606e-06
1.46053e-06
1.45896e-06
1.45884e-06
1.45877e-06
1.45873e-06
1.4588e-06
1.45895e-06
1.46056e-06
1.46056e-06
1.4603e-06
1.4591e-06
1.46046e-06
1.4606e-06
1.44448e-06
1.44434e-06
1.44425e-06
1.44262e-06
1.44253e-06
1.44249e-06
1.44258e-06
1.44412e-06
1.44435e-06
1.44425e-06
1.44215e-06
1.43941e-06
1.43941e-06
1.43941e-06
1.43941e-06
1.44216e-06
1.44278e-06
1.44262e-06
1.43941e-06
1.43941e-06
1.43941e-06
1.43941e-06
1.43941e-06
1.43941e-06
1.44266e-06
1.44438e-06
1.44448e-06
1.44253e-06
1.43941e-06
1.43941e-06
1.43941e-06
1.43941e-06
1.43941e-06
1.43941e-06
1.44259e-06
1.44412e-06
1.44435e-06
1.44248e-06
1.43941e-06
1.43941e-06
1.43941e-06
1.43941e-06
1.43941e-06
1.43941e-06
1.44255e-06
1.44292e-06
1.44258e-06
1.43941e-06
1.43941e-06
1.43941e-06
1.43941e-06
1.43941e-06
1.43941e-06
1.44262e-06
1.44428e-06
1.44412e-06
1.44216e-06
1.43941e-06
1.43941e-06
1.43941e-06
1.43941e-06
1.44216e-06
1.44276e-06
1.44442e-06
1.44435e-06
1.44278e-06
1.44266e-06
1.44259e-06
1.44255e-06
1.44262e-06
1.44276e-06
1.44438e-06
1.44438e-06
1.44412e-06
1.44292e-06
1.44428e-06
1.44442e-06
1.42829e-06
1.42816e-06
1.42807e-06
1.42644e-06
1.42635e-06
1.42631e-06
1.4264e-06
1.42794e-06
1.42817e-06
1.42807e-06
1.42597e-06
1.42323e-06
1.42323e-06
1.42323e-06
1.42323e-06
1.42598e-06
1.4266e-06
1.42644e-06
1.42323e-06
1.42323e-06
1.42323e-06
1.42323e-06
1.42323e-06
1.42323e-06
1.42648e-06
1.4282e-06
1.42829e-06
1.42635e-06
1.42323e-06
1.42323e-06
1.42323e-06
1.42323e-06
1.42323e-06
1.42323e-06
1.42641e-06
1.42794e-06
1.42816e-06
1.42631e-06
1.42323e-06
1.42323e-06
1.42323e-06
1.42323e-06
1.42323e-06
1.42323e-06
1.42637e-06
1.42674e-06
1.4264e-06
1.42323e-06
1.42323e-06
1.42323e-06
1.42323e-06
1.42323e-06
1.42323e-06
1.42644e-06
1.4281e-06
1.42794e-06
1.42598e-06
1.42323e-06
1.42323e-06
1.42323e-06
1.42323e-06
1.42598e-06
1.42658e-06
1.42824e-06
1.42817e-06
1.4266e-06
1.42648e-06
1.42641e-06
1.42637e-06
1.42644e-06
1.42658e-06
1.42819e-06
1.4282e-06
1.42794e-06
1.42674e-06
1.4281e-06
1.42824e-06
1.41211e-06
1.41197e-06
1.41188e-06
1.41026e-06
1.41017e-06
1.41012e-06
1.41022e-06
1.41176e-06
1.41199e-06
1.41188e-06
1.40979e-06
1.40705e-06
1.40705e-06
1.40705e-06
1.40705e-06
1.4098e-06
1.41042e-06
1.41026e-06
1.40705e-06
1.40705e-06
1.40705e-06
1.40705e-06
1.40705e-06
1.40705e-06
1.41029e-06
1.41202e-06
1.41211e-06
1.41017e-06
1.40705e-06
1.40705e-06
1.40705e-06
1.40705e-06
1.40705e-06
1.40705e-06
1.41022e-06
1.41176e-06
1.41197e-06
1.41013e-06
1.40705e-06
1.40705e-06
1.40705e-06
1.40705e-06
1.40705e-06
1.40705e-06
1.41019e-06
1.41056e-06
1.41022e-06
1.40704e-06
1.40705e-06
1.40705e-06
1.40705e-06
1.40705e-06
1.40705e-06
1.41026e-06
1.41192e-06
1.41176e-06
1.4098e-06
1.40705e-06
1.40705e-06
1.40705e-06
1.40705e-06
1.4098e-06
1.4104e-06
1.41205e-06
1.41199e-06
1.41042e-06
1.41029e-06
1.41022e-06
1.41019e-06
1.41026e-06
1.4104e-06
1.41201e-06
1.41202e-06
1.41176e-06
1.41056e-06
1.41192e-06
1.41205e-06
1.39593e-06
1.39579e-06
1.3957e-06
1.39408e-06
1.39398e-06
1.39394e-06
1.39404e-06
1.39558e-06
1.39581e-06
1.3957e-06
1.3936e-06
1.39086e-06
1.39086e-06
1.39086e-06
1.39086e-06
1.39362e-06
1.39423e-06
1.39408e-06
1.39086e-06
1.39086e-06
1.39086e-06
1.39086e-06
1.39086e-06
1.39086e-06
1.39411e-06
1.39584e-06
1.39593e-06
1.39399e-06
1.39086e-06
1.39086e-06
1.39086e-06
1.39086e-06
1.39086e-06
1.39086e-06
1.39404e-06
1.39558e-06
1.39579e-06
1.39394e-06
1.39086e-06
1.39086e-06
1.39086e-06
1.39086e-06
1.39086e-06
1.39086e-06
1.39401e-06
1.39438e-06
1.39404e-06
1.39086e-06
1.39086e-06
1.39086e-06
1.39086e-06
1.39086e-06
1.39086e-06
1.39408e-06
1.39574e-06
1.39558e-06
1.39362e-06
1.39086e-06
1.39086e-06
1.39086e-06
1.39086e-06
1.39362e-06
1.39422e-06
1.39587e-06
1.39581e-06
1.39423e-06
1.39411e-06
1.39404e-06
1.39401e-06
1.39408e-06
1.39422e-06
1.39583e-06
1.39584e-06
1.39558e-06
1.39438e-06
1.39574e-06
1.39587e-06
1.37975e-06
1.37961e-06
1.37952e-06
1.3779e-06
1.3778e-06
1.37776e-06
1.37786e-06
1.3794e-06
1.37963e-06
1.37952e-06
1.37742e-06
1.37468e-06
1.37468e-06
1.37468e-06
1.37468e-06
1.37743e-06
1.37805e-06
1.3779e-06
1.37468e-06
1.37468e-06
1.37468e-06
1.37468e-06
1.37468e-06
1.37468e-06
1.37793e-06
1.37965e-06
1.37975e-06
1.3778e-06
1.37468e-06
1.37468e-06
1.37468e-06
1.37468e-06
1.37468e-06
1.37468e-06
1.37786e-06
1.37939e-06
1.37961e-06
1.37776e-06
1.37468e-06
1.37468e-06
1.37468e-06
1.37468e-06
1.37468e-06
1.37468e-06
1.37783e-06
1.37819e-06
1.37786e-06
1.37468e-06
1.37468e-06
1.37468e-06
1.37468e-06
1.37468e-06
1.37468e-06
1.3779e-06
1.37955e-06
1.3794e-06
1.37743e-06
1.37468e-06
1.37468e-06
1.37468e-06
1.37468e-06
1.37744e-06
1.37804e-06
1.37969e-06
1.37963e-06
1.37805e-06
1.37793e-06
1.37786e-06
1.37783e-06
1.3779e-06
1.37804e-06
1.37965e-06
1.37965e-06
1.37939e-06
1.37819e-06
1.37955e-06
1.37969e-06
1.36357e-06
1.36343e-06
1.36334e-06
1.36171e-06
1.36162e-06
1.36158e-06
1.36167e-06
1.36322e-06
1.36344e-06
1.36334e-06
1.36124e-06
1.3585e-06
1.3585e-06
1.3585e-06
1.3585e-06
1.36125e-06
1.36187e-06
1.36171e-06
1.3585e-06
1.3585e-06
1.3585e-06
1.3585e-06
1.3585e-06
1.3585e-06
1.36175e-06
1.36347e-06
1.36357e-06
1.36162e-06
1.3585e-06
1.3585e-06
1.3585e-06
1.3585e-06
1.3585e-06
1.3585e-06
1.36168e-06
1.36321e-06
1.36343e-06
1.36158e-06
1.3585e-06
1.3585e-06
1.3585e-06
1.3585e-06
1.3585e-06
1.3585e-06
1.36164e-06
1.36201e-06
1.36167e-06
1.3585e-06
1.3585e-06
1.3585e-06
1.3585e-06
1.3585e-06
1.3585e-06
1.36171e-06
1.36337e-06
1.36322e-06
1.36125e-06
1.3585e-06
1.3585e-06
1.3585e-06
1.3585e-06
1.36125e-06
1.36186e-06
1.36351e-06
1.36344e-06
1.36187e-06
1.36175e-06
1.36168e-06
1.36164e-06
1.36171e-06
1.36186e-06
1.36347e-06
1.36347e-06
1.36321e-06
1.36201e-06
1.36337e-06
1.36351e-06
1.34739e-06
1.34725e-06
1.34716e-06
1.34553e-06
1.34544e-06
1.3454e-06
1.34549e-06
1.34703e-06
1.34726e-06
1.34716e-06
1.34506e-06
1.34232e-06
1.34232e-06
1.34232e-06
1.34232e-06
1.34507e-06
1.34569e-06
1.34553e-06
1.34232e-06
1.34232e-06
1.34232e-06
1.34232e-06
1.34232e-06
1.34232e-06
1.34557e-06
1.34729e-06
1.34739e-06
1.34544e-06
1.34232e-06
1.34232e-06
1.34232e-06
1.34232e-06
1.34232e-06
1.34232e-06
1.3455e-06
1.34703e-06
1.34725e-06
1.3454e-06
1.34232e-06
1.34232e-06
1.34232e-06
1.34232e-06
1.34232e-06
1.34232e-06
1.34546e-06
1.34583e-06
1.34549e-06
1.34232e-06
1.34232e-06
1.34232e-06
1.34232e-06
1.34232e-06
1.34232e-06
1.34553e-06
1.34719e-06
1.34703e-06
1.34507e-06
1.34232e-06
1.34232e-06
1.34232e-06
1.34232e-06
1.34507e-06
1.34567e-06
1.34733e-06
1.34726e-06
1.34569e-06
1.34557e-06
1.3455e-06
1.34546e-06
1.34553e-06
1.34567e-06
1.34729e-06
1.34729e-06
1.34703e-06
1.34583e-06
1.34719e-06
1.34733e-06
1.3312e-06
1.33107e-06
1.33098e-06
1.32935e-06
1.32926e-06
1.32922e-06
1.32931e-06
1.33085e-06
1.33108e-06
1.33098e-06
1.32888e-06
1.32614e-06
1.32614e-06
1.32614e-06
1.32614e-06
1.32889e-06
1.32951e-06
1.32935e-06
1.32614e-06
1.32614e-06
1.32614e-06
1.32614e-06
1.32614e-06
1.32614e-06
1.32939e-06
1.33111e-06
1.3312e-06
1.32925e-06
1.32614e-06
1.32614e-06
1.32614e-06
1.32614e-06
1.32614e-06
1.32614e-06
1.32932e-06
1.33085e-06
1.33107e-06
1.32921e-06
1.32614e-06
1.32614e-06
1.32614e-06
1.32614e-06
1.32614e-06
1.32614e-06
1.32928e-06
1.32965e-06
1.32931e-06
1.32614e-06
1.32614e-06
1.32614e-06
1.32614e-06
1.32614e-06
1.32614e-06
1.32935e-06
1.33101e-06
1.33085e-06
1.32889e-06
1.32614e-06
1.32614e-06
1.32614e-06
1.32614e-06
1.32889e-06
1.32949e-06
1.33115e-06
1.33108e-06
1.32951e-06
1.32939e-06
1.32932e-06
1.32928e-06
1.32935e-06
1.32949e-06
1.33111e-06
1.33111e-06
1.33085e-06
1.32965e-06
1.33101e-06
1.33115e-06
1.31502e-06
1.31488e-06
1.31479e-06
1.31317e-06
1.31308e-06
1.31304e-06
1.31313e-06
1.31467e-06
1.3149e-06
1.31479e-06
1.3127e-06
1.30996e-06
1.30996e-06
1.30996e-06
1.30996e-06
1.31271e-06
1.31333e-06
1.31317e-06
1.30996e-06
1.30996e-06
1.30996e-06
1.30996e-06
1.30996e-06
1.30996e-06
1.3132e-06
1.31493e-06
1.31502e-06
1.31308e-06
1.30996e-06
1.30996e-06
1.30996e-06
1.30996e-06
1.30996e-06
1.30996e-06
1.31313e-06
1.31467e-06
1.31489e-06
1.31304e-06
1.30996e-06
1.30996e-06
1.30996e-06
1.30996e-06
1.30996e-06
1.30996e-06
1.3131e-06
1.31347e-06
1.31313e-06
1.30996e-06
1.30996e-06
1.30996e-06
1.30996e-06
1.30996e-06
1.30996e-06
1.31317e-06
1.31483e-06
1.31467e-06
1.31271e-06
1.30996e-06
1.30996e-06
1.30996e-06
1.30996e-06
1.31271e-06
1.31331e-06
1.31496e-06
1.3149e-06
1.31333e-06
1.3132e-06
1.31313e-06
1.3131e-06
1.31317e-06
1.31331e-06
1.31492e-06
1.31493e-06
1.31467e-06
1.31347e-06
1.31483e-06
1.31496e-06
1.29884e-06
1.2987e-06
1.29861e-06
1.29699e-06
1.29689e-06
1.29685e-06
1.29695e-06
1.29849e-06
1.29872e-06
1.29861e-06
1.29652e-06
1.29378e-06
1.29378e-06
1.29378e-06
1.29378e-06
1.29653e-06
1.29715e-06
1.29699e-06
1.29378e-06
1.29378e-06
1.29378e-06
1.29378e-06
1.29378e-06
1.29378e-06
1.29702e-06
1.29875e-06
1.29884e-06
1.2969e-06
1.29378e-06
1.29378e-06
1.29378e-06
1.29378e-06
1.29378e-06
1.29378e-06
1.29695e-06
1.29849e-06
1.2987e-06
1.29685e-06
1.29378e-06
1.29378e-06
1.29378e-06
1.29378e-06
1.29378e-06
1.29378e-06
1.29692e-06
1.29729e-06
1.29695e-06
1.29378e-06
1.29378e-06
1.29378e-06
1.29378e-06
1.29378e-06
1.29378e-06
1.29699e-06
1.29865e-06
1.29849e-06
1.29653e-06
1.29378e-06
1.29378e-06
1.29378e-06
1.29378e-06
1.29653e-06
1.29713e-06
1.29878e-06
1.29872e-06
1.29715e-06
1.29702e-06
1.29695e-06
1.29692e-06
1.29699e-06
1.29713e-06
1.29874e-06
1.29875e-06
1.29849e-06
1.29729e-06
1.29865e-06
1.29878e-06
1.28266e-06
1.28252e-06
1.28243e-06
1.28081e-06
1.28071e-06
1.28067e-06
1.28077e-06
1.28231e-06
1.28254e-06
1.28243e-06
1.28034e-06
1.27759e-06
1.27759e-06
1.27759e-06
1.27759e-06
1.28035e-06
1.28097e-06
1.28081e-06
1.27759e-06
1.27759e-06
1.27759e-06
1.27759e-06
1.27759e-06
1.27759e-06
1.28084e-06
1.28257e-06
1.28266e-06
1.28071e-06
1.27759e-06
1.27759e-06
1.27759e-06
1.27759e-06
1.27759e-06
1.27759e-06
1.28077e-06
1.28231e-06
1.28252e-06
1.28067e-06
1.27759e-06
1.27759e-06
1.27759e-06
1.27759e-06
1.27759e-06
1.27759e-06
1.28074e-06
1.28111e-06
1.28077e-06
1.27759e-06
1.27759e-06
1.27759e-06
1.27759e-06
1.27759e-06
1.27759e-06
1.28081e-06
1.28247e-06
1.28231e-06
1.28035e-06
1.27759e-06
1.27759e-06
1.27759e-06
1.27759e-06
1.28035e-06
1.28095e-06
1.2826e-06
1.28254e-06
1.28097e-06
1.28084e-06
1.28077e-06
1.28074e-06
1.28081e-06
1.28095e-06
1.28256e-06
1.28257e-06
1.28231e-06
1.28111e-06
1.28247e-06
1.2826e-06
1.26648e-06
1.26634e-06
1.26625e-06
1.26463e-06
1.26453e-06
1.26449e-06
1.26459e-06
1.26613e-06
1.26636e-06
1.26625e-06
1.26415e-06
1.26141e-06
1.26141e-06
1.26141e-06
1.26141e-06
1.26417e-06
1.26478e-06
1.26463e-06
1.26141e-06
1.26141e-06
1.26141e-06
1.26141e-06
1.26141e-06
1.26141e-06
1.26466e-06
1.26639e-06
1.26648e-06
1.26453e-06
1.26141e-06
1.26141e-06
1.26141e-06
1.26141e-06
1.26141e-06
1.26141e-06
1.26459e-06
1.26613e-06
1.26634e-06
1.26449e-06
1.26141e-06
1.26141e-06
1.26141e-06
1.26141e-06
1.26141e-06
1.26141e-06
1.26456e-06
1.26493e-06
1.26459e-06
1.26141e-06
1.26141e-06
1.26141e-06
1.26141e-06
1.26141e-06
1.26141e-06
1.26463e-06
1.26629e-06
1.26613e-06
1.26417e-06
1.26141e-06
1.26141e-06
1.26141e-06
1.26141e-06
1.26417e-06
1.26477e-06
1.26642e-06
1.26636e-06
1.26478e-06
1.26466e-06
1.26459e-06
1.26456e-06
1.26463e-06
1.26477e-06
1.26638e-06
1.26639e-06
1.26613e-06
1.26492e-06
1.26629e-06
1.26642e-06
1.2503e-06
1.25016e-06
1.25007e-06
1.24845e-06
1.24835e-06
1.24831e-06
1.24841e-06
1.24995e-06
1.25018e-06
1.25007e-06
1.24797e-06
1.24523e-06
1.24523e-06
1.24523e-06
1.24523e-06
1.24799e-06
1.2486e-06
1.24845e-06
1.24523e-06
1.24523e-06
1.24523e-06
1.24523e-06
1.24523e-06
1.24523e-06
1.24848e-06
1.25021e-06
1.2503e-06
1.24835e-06
1.24523e-06
1.24523e-06
1.24523e-06
1.24523e-06
1.24523e-06
1.24523e-06
1.24841e-06
1.24995e-06
1.25016e-06
1.24831e-06
1.24523e-06
1.24523e-06
1.24523e-06
1.24523e-06
1.24523e-06
1.24523e-06
1.24838e-06
1.24875e-06
1.24841e-06
1.24523e-06
1.24523e-06
1.24523e-06
1.24523e-06
1.24523e-06
1.24523e-06
1.24845e-06
1.25011e-06
1.24995e-06
1.24799e-06
1.24523e-06
1.24523e-06
1.24523e-06
1.24523e-06
1.24799e-06
1.24859e-06
1.25024e-06
1.25018e-06
1.2486e-06
1.24848e-06
1.24841e-06
1.24838e-06
1.24845e-06
1.24859e-06
1.2502e-06
1.25021e-06
1.24995e-06
1.24875e-06
1.2501e-06
1.25024e-06
1.23412e-06
1.23398e-06
1.23389e-06
1.23227e-06
1.23217e-06
1.23213e-06
1.23223e-06
1.23377e-06
1.234e-06
1.23389e-06
1.23179e-06
1.22905e-06
1.22905e-06
1.22905e-06
1.22905e-06
1.23181e-06
1.23242e-06
1.23227e-06
1.22905e-06
1.22905e-06
1.22905e-06
1.22905e-06
1.22905e-06
1.22905e-06
1.2323e-06
1.23403e-06
1.23412e-06
1.23217e-06
1.22905e-06
1.22905e-06
1.22905e-06
1.22905e-06
1.22905e-06
1.22905e-06
1.23223e-06
1.23377e-06
1.23398e-06
1.23213e-06
1.22905e-06
1.22905e-06
1.22905e-06
1.22905e-06
1.22905e-06
1.22905e-06
1.2322e-06
1.23257e-06
1.23223e-06
1.22905e-06
1.22905e-06
1.22905e-06
1.22905e-06
1.22905e-06
1.22905e-06
1.23227e-06
1.23393e-06
1.23377e-06
1.23181e-06
1.22905e-06
1.22905e-06
1.22905e-06
1.22905e-06
1.23181e-06
1.23241e-06
1.23406e-06
1.234e-06
1.23242e-06
1.2323e-06
1.23223e-06
1.2322e-06
1.23227e-06
1.23241e-06
1.23402e-06
1.23402e-06
1.23376e-06
1.23257e-06
1.23393e-06
1.23406e-06
1.21794e-06
1.2178e-06
1.21771e-06
1.21609e-06
1.21599e-06
1.21595e-06
1.21605e-06
1.21759e-06
1.21782e-06
1.21771e-06
1.21561e-06
1.21287e-06
1.21287e-06
1.21287e-06
1.21287e-06
1.21562e-06
1.21624e-06
1.21609e-06
1.21287e-06
1.21287e-06
1.21287e-06
1.21287e-06
1.21287e-06
1.21287e-06
1.21612e-06
1.21784e-06
1.21794e-06
1.21599e-06
1.21287e-06
1.21287e-06
1.21287e-06
1.21287e-06
1.21287e-06
1.21287e-06
1.21605e-06
1.21758e-06
1.2178e-06
1.21595e-06
1.21287e-06
1.21287e-06
1.21287e-06
1.21287e-06
1.21287e-06
1.21287e-06
1.21602e-06
1.21638e-06
1.21605e-06
1.21287e-06
1.21287e-06
1.21287e-06
1.21287e-06
1.21287e-06
1.21287e-06
1.21609e-06
1.21774e-06
1.21759e-06
1.21562e-06
1.21287e-06
1.21287e-06
1.21287e-06
1.21287e-06
1.21563e-06
1.21623e-06
1.21788e-06
1.21782e-06
1.21624e-06
1.21612e-06
1.21605e-06
1.21602e-06
1.21609e-06
1.21623e-06
1.21784e-06
1.21784e-06
1.21758e-06
1.21639e-06
1.21775e-06
1.21788e-06
1.20176e-06
1.20162e-06
1.20153e-06
1.19991e-06
1.19981e-06
1.19977e-06
1.19987e-06
1.20141e-06
1.20163e-06
1.20153e-06
1.19943e-06
1.19669e-06
1.19669e-06
1.19669e-06
1.19669e-06
1.19944e-06
1.20006e-06
1.19991e-06
1.19669e-06
1.19669e-06
1.19669e-06
1.19669e-06
1.19669e-06
1.19669e-06
1.19994e-06
1.20166e-06
1.20176e-06
1.19981e-06
1.19669e-06
1.19669e-06
1.19669e-06
1.19669e-06
1.19669e-06
1.19669e-06
1.19987e-06
1.2014e-06
1.20162e-06
1.19977e-06
1.19669e-06
1.19669e-06
1.19669e-06
1.19669e-06
1.19669e-06
1.19669e-06
1.19984e-06
1.2002e-06
1.19987e-06
1.19669e-06
1.19669e-06
1.19669e-06
1.19669e-06
1.19669e-06
1.19669e-06
1.19991e-06
1.20156e-06
1.20141e-06
1.19944e-06
1.19669e-06
1.19669e-06
1.19669e-06
1.19669e-06
1.19945e-06
1.20005e-06
1.2017e-06
1.20163e-06
1.20006e-06
1.19994e-06
1.19987e-06
1.19984e-06
1.1999e-06
1.20005e-06
1.20166e-06
1.20166e-06
1.20141e-06
1.2002e-06
1.20156e-06
1.2017e-06
1.18558e-06
1.18544e-06
1.18535e-06
1.18372e-06
1.18363e-06
1.18359e-06
1.18369e-06
1.18523e-06
1.18545e-06
1.18535e-06
1.18325e-06
1.18051e-06
1.18051e-06
1.18051e-06
1.18051e-06
1.18326e-06
1.18388e-06
1.18372e-06
1.18051e-06
1.18051e-06
1.18051e-06
1.18051e-06
1.18051e-06
1.18051e-06
1.18376e-06
1.18548e-06
1.18558e-06
1.18363e-06
1.18051e-06
1.18051e-06
1.18051e-06
1.18051e-06
1.18051e-06
1.18051e-06
1.18369e-06
1.18522e-06
1.18544e-06
1.18359e-06
1.18051e-06
1.18051e-06
1.18051e-06
1.18051e-06
1.18051e-06
1.18051e-06
1.18365e-06
1.18402e-06
1.18369e-06
1.18051e-06
1.18051e-06
1.18051e-06
1.18051e-06
1.18051e-06
1.18051e-06
1.18372e-06
1.18538e-06
1.18523e-06
1.18326e-06
1.18051e-06
1.18051e-06
1.18051e-06
1.18051e-06
1.18326e-06
1.18387e-06
1.18552e-06
1.18545e-06
1.18388e-06
1.18376e-06
1.18369e-06
1.18366e-06
1.18372e-06
1.18387e-06
1.18548e-06
1.18548e-06
1.18523e-06
1.18402e-06
1.18538e-06
1.18552e-06
1.1694e-06
1.16926e-06
1.16917e-06
1.16754e-06
1.16745e-06
1.16741e-06
1.1675e-06
1.16905e-06
1.16927e-06
1.16917e-06
1.16707e-06
1.16433e-06
1.16433e-06
1.16433e-06
1.16433e-06
1.16708e-06
1.1677e-06
1.16754e-06
1.16433e-06
1.16433e-06
1.16433e-06
1.16433e-06
1.16433e-06
1.16433e-06
1.16758e-06
1.1693e-06
1.1694e-06
1.16745e-06
1.16433e-06
1.16433e-06
1.16433e-06
1.16433e-06
1.16433e-06
1.16433e-06
1.16751e-06
1.16904e-06
1.16926e-06
1.16741e-06
1.16433e-06
1.16433e-06
1.16433e-06
1.16433e-06
1.16433e-06
1.16433e-06
1.16747e-06
1.16784e-06
1.1675e-06
1.16433e-06
1.16433e-06
1.16433e-06
1.16433e-06
1.16433e-06
1.16433e-06
1.16754e-06
1.1692e-06
1.16905e-06
1.16708e-06
1.16433e-06
1.16433e-06
1.16433e-06
1.16433e-06
1.16708e-06
1.16769e-06
1.16934e-06
1.16927e-06
1.1677e-06
1.16758e-06
1.16751e-06
1.16748e-06
1.16754e-06
1.16769e-06
1.1693e-06
1.1693e-06
1.16904e-06
1.16784e-06
1.1692e-06
1.16934e-06
1.15322e-06
1.15308e-06
1.15299e-06
1.15136e-06
1.15127e-06
1.15123e-06
1.15132e-06
1.15287e-06
1.15309e-06
1.15299e-06
1.15089e-06
1.14815e-06
1.14815e-06
1.14815e-06
1.14815e-06
1.1509e-06
1.15152e-06
1.15136e-06
1.14815e-06
1.14815e-06
1.14815e-06
1.14815e-06
1.14815e-06
1.14815e-06
1.1514e-06
1.15312e-06
1.15322e-06
1.15127e-06
1.14815e-06
1.14815e-06
1.14815e-06
1.14815e-06
1.14815e-06
1.14815e-06
1.15133e-06
1.15286e-06
1.15308e-06
1.15123e-06
1.14815e-06
1.14815e-06
1.14815e-06
1.14815e-06
1.14815e-06
1.14815e-06
1.15129e-06
1.15166e-06
1.15132e-06
1.14815e-06
1.14815e-06
1.14815e-06
1.14815e-06
1.14815e-06
1.14815e-06
1.15136e-06
1.15302e-06
1.15287e-06
1.1509e-06
1.14815e-06
1.14815e-06
1.14815e-06
1.14815e-06
1.1509e-06
1.15151e-06
1.15316e-06
1.15309e-06
1.15152e-06
1.1514e-06
1.15133e-06
1.15129e-06
1.15136e-06
1.15151e-06
1.15312e-06
1.15312e-06
1.15286e-06
1.15166e-06
1.15302e-06
1.15316e-06
1.13704e-06
1.1369e-06
1.13681e-06
1.13518e-06
1.13509e-06
1.13505e-06
1.13514e-06
1.13668e-06
1.13691e-06
1.13681e-06
1.13471e-06
1.13197e-06
1.13197e-06
1.13197e-06
1.13197e-06
1.13472e-06
1.13534e-06
1.13518e-06
1.13197e-06
1.13197e-06
1.13197e-06
1.13197e-06
1.13197e-06
1.13197e-06
1.13522e-06
1.13694e-06
1.13703e-06
1.13509e-06
1.13197e-06
1.13197e-06
1.13197e-06
1.13197e-06
1.13197e-06
1.13197e-06
1.13515e-06
1.13668e-06
1.1369e-06
1.13505e-06
1.13197e-06
1.13197e-06
1.13197e-06
1.13197e-06
1.13197e-06
1.13197e-06
1.13511e-06
1.13548e-06
1.13514e-06
1.13197e-06
1.13197e-06
1.13197e-06
1.13197e-06
1.13197e-06
1.13197e-06
1.13518e-06
1.13684e-06
1.13668e-06
1.13472e-06
1.13197e-06
1.13197e-06
1.13197e-06
1.13197e-06
1.13472e-06
1.13532e-06
1.13698e-06
1.13691e-06
1.13534e-06
1.13522e-06
1.13515e-06
1.13511e-06
1.13518e-06
1.13532e-06
1.13694e-06
1.13694e-06
1.13668e-06
1.13548e-06
1.13684e-06
1.13698e-06
1.12085e-06
1.12072e-06
1.12063e-06
1.119e-06
1.11891e-06
1.11887e-06
1.11896e-06
1.1205e-06
1.12073e-06
1.12063e-06
1.11853e-06
1.11579e-06
1.11579e-06
1.11579e-06
1.11579e-06
1.11854e-06
1.11916e-06
1.119e-06
1.11579e-06
1.11579e-06
1.11579e-06
1.11579e-06
1.11579e-06
1.11579e-06
1.11904e-06
1.12076e-06
1.12086e-06
1.11891e-06
1.11579e-06
1.11579e-06
1.11579e-06
1.11579e-06
1.11579e-06
1.11579e-06
1.11897e-06
1.1205e-06
1.12072e-06
1.11887e-06
1.11579e-06
1.11579e-06
1.11579e-06
1.11579e-06
1.11579e-06
1.11579e-06
1.11893e-06
1.1193e-06
1.11896e-06
1.11579e-06
1.11579e-06
1.11579e-06
1.11579e-06
1.11579e-06
1.11579e-06
1.119e-06
1.12066e-06
1.1205e-06
1.11854e-06
1.11579e-06
1.11579e-06
1.11579e-06
1.11579e-06
1.11854e-06
1.11914e-06
1.1208e-06
1.12073e-06
1.11916e-06
1.11904e-06
1.11897e-06
1.11893e-06
1.119e-06
1.11914e-06
1.12076e-06
1.12076e-06
1.1205e-06
1.1193e-06
1.12066e-06
1.1208e-06
1.10467e-06
1.10454e-06
1.10445e-06
1.10282e-06
1.10273e-06
1.10269e-06
1.10278e-06
1.10432e-06
1.10455e-06
1.10445e-06
1.10235e-06
1.09961e-06
1.09961e-06
1.09961e-06
1.09961e-06
1.10236e-06
1.10298e-06
1.10282e-06
1.09961e-06
1.09961e-06
1.09961e-06
1.09961e-06
1.09961e-06
1.09961e-06
1.10286e-06
1.10458e-06
1.10467e-06
1.10273e-06
1.09961e-06
1.09961e-06
1.09961e-06
1.09961e-06
1.09961e-06
1.09961e-06
1.10279e-06
1.10432e-06
1.10454e-06
1.10269e-06
1.09961e-06
1.09961e-06
1.09961e-06
1.09961e-06
1.09961e-06
1.09961e-06
1.10275e-06
1.10312e-06
1.10278e-06
1.09961e-06
1.09961e-06
1.09961e-06
1.09961e-06
1.09961e-06
1.09961e-06
1.10282e-06
1.10448e-06
1.10432e-06
1.10236e-06
1.09961e-06
1.09961e-06
1.09961e-06
1.09961e-06
1.10236e-06
1.10296e-06
1.10462e-06
1.10455e-06
1.10298e-06
1.10286e-06
1.10279e-06
1.10275e-06
1.10282e-06
1.10296e-06
1.10458e-06
1.10458e-06
1.10432e-06
1.10312e-06
1.10448e-06
1.10462e-06
1.08849e-06
1.08836e-06
1.08827e-06
1.08664e-06
1.08655e-06
1.08651e-06
1.0866e-06
1.08814e-06
1.08837e-06
1.08827e-06
1.08617e-06
1.08343e-06
1.08343e-06
1.08343e-06
1.08343e-06
1.08618e-06
1.0868e-06
1.08664e-06
1.08343e-06
1.08343e-06
1.08343e-06
1.08343e-06
1.08343e-06
1.08343e-06
1.08668e-06
1.0884e-06
1.08849e-06
1.08655e-06
1.08343e-06
1.08343e-06
1.08343e-06
1.08343e-06
1.08343e-06
1.08343e-06
1.08661e-06
1.08814e-06
1.08835e-06
1.08651e-06
1.08343e-06
1.08343e-06
1.08343e-06
1.08343e-06
1.08343e-06
1.08343e-06
1.08657e-06
1.08694e-06
1.0866e-06
1.08343e-06
1.08343e-06
1.08343e-06
1.08343e-06
1.08343e-06
1.08343e-06
1.08664e-06
1.0883e-06
1.08814e-06
1.08618e-06
1.08343e-06
1.08343e-06
1.08343e-06
1.08343e-06
1.08618e-06
1.08678e-06
1.08844e-06
1.08837e-06
1.0868e-06
1.08668e-06
1.08661e-06
1.08657e-06
1.08664e-06
1.08678e-06
1.0884e-06
1.0884e-06
1.08814e-06
1.08694e-06
1.0883e-06
1.08844e-06
1.07231e-06
1.07217e-06
1.07208e-06
1.07046e-06
1.07037e-06
1.07033e-06
1.07042e-06
1.07196e-06
1.07219e-06
1.07208e-06
1.06999e-06
1.06725e-06
1.06725e-06
1.06725e-06
1.06725e-06
1.07e-06
1.07062e-06
1.07046e-06
1.06725e-06
1.06725e-06
1.06725e-06
1.06725e-06
1.06725e-06
1.06725e-06
1.07049e-06
1.07222e-06
1.07231e-06
1.07037e-06
1.06725e-06
1.06725e-06
1.06725e-06
1.06725e-06
1.06725e-06
1.06725e-06
1.07042e-06
1.07196e-06
1.07217e-06
1.07033e-06
1.06725e-06
1.06725e-06
1.06725e-06
1.06725e-06
1.06725e-06
1.06725e-06
1.07039e-06
1.07076e-06
1.07042e-06
1.06725e-06
1.06725e-06
1.06725e-06
1.06725e-06
1.06725e-06
1.06725e-06
1.07046e-06
1.07212e-06
1.07196e-06
1.07e-06
1.06725e-06
1.06725e-06
1.06725e-06
1.06725e-06
1.07e-06
1.0706e-06
1.07225e-06
1.07219e-06
1.07062e-06
1.07049e-06
1.07042e-06
1.07039e-06
1.07046e-06
1.0706e-06
1.07221e-06
1.07222e-06
1.07196e-06
1.07076e-06
1.07212e-06
1.07225e-06
1.05613e-06
1.05599e-06
1.0559e-06
1.05428e-06
1.05418e-06
1.05414e-06
1.05424e-06
1.05578e-06
1.05601e-06
1.0559e-06
1.05381e-06
1.05106e-06
1.05106e-06
1.05106e-06
1.05106e-06
1.05382e-06
1.05444e-06
1.05428e-06
1.05106e-06
1.05106e-06
1.05106e-06
1.05106e-06
1.05106e-06
1.05106e-06
1.05431e-06
1.05604e-06
1.05613e-06
1.05418e-06
1.05106e-06
1.05106e-06
1.05106e-06
1.05106e-06
1.05106e-06
1.05106e-06
1.05424e-06
1.05578e-06
1.05599e-06
1.05414e-06
1.05106e-06
1.05106e-06
1.05106e-06
1.05106e-06
1.05106e-06
1.05106e-06
1.05421e-06
1.05458e-06
1.05424e-06
1.05106e-06
1.05106e-06
1.05106e-06
1.05106e-06
1.05106e-06
1.05106e-06
1.05428e-06
1.05594e-06
1.05578e-06
1.05382e-06
1.05106e-06
1.05106e-06
1.05106e-06
1.05106e-06
1.05382e-06
1.05442e-06
1.05607e-06
1.05601e-06
1.05444e-06
1.05431e-06
1.05424e-06
1.05421e-06
1.05428e-06
1.05442e-06
1.05603e-06
1.05604e-06
1.05578e-06
1.05458e-06
1.05594e-06
1.05607e-06
1.03995e-06
1.03981e-06
1.03972e-06
1.0381e-06
1.038e-06
1.03796e-06
1.03806e-06
1.0396e-06
1.03983e-06
1.03972e-06
1.03762e-06
1.03488e-06
1.03488e-06
1.03488e-06
1.03488e-06
1.03764e-06
1.03825e-06
1.0381e-06
1.03488e-06
1.03488e-06
1.03488e-06
1.03488e-06
1.03488e-06
1.03488e-06
1.03813e-06
1.03986e-06
1.03995e-06
1.038e-06
1.03488e-06
1.03488e-06
1.03488e-06
1.03488e-06
1.03488e-06
1.03488e-06
1.03806e-06
1.0396e-06
1.03981e-06
1.03796e-06
1.03488e-06
1.03488e-06
1.03488e-06
1.03488e-06
1.03488e-06
1.03488e-06
1.03803e-06
1.0384e-06
1.03806e-06
1.03488e-06
1.03488e-06
1.03488e-06
1.03488e-06
1.03488e-06
1.03488e-06
1.0381e-06
1.03976e-06
1.0396e-06
1.03764e-06
1.03488e-06
1.03488e-06
1.03488e-06
1.03488e-06