/*--------------------------------*- C++ -*----------------------------------*\
| =========                 |                                                 |
| \\      /  F ield         | OpenFOAM: The Open Source CFD Toolbox           |
|  \\    /   O peration     | Version:  v2012                                 |
|   \\  /    A nd           | Website:  www.openfoam.com                      |
|    \\/     M anipulation  |                                                 |
\*---------------------------------------------------------------------------*/
FoamFile
{
    version     2.0;
    format      ascii;
    class       volScalarField;
    location    "0.035";
    object      p;
}
// * * * * * * * * * * * * * * * * * * * * * * * * * * * * * * * * * * * * * //

dimensions      [0 2 -2 0 0 0 0];


internalField   nonuniform List<scalar> 
244288
(
2.76474e-06
2.76833e-06
2.76796e-06
2.76702e-06
2.76631e-06
2.7672e-06
2.76812e-06
2.76834e-06
2.7687e-06
2.76867e-06
2.76817e-06
2.76784e-06
2.76827e-06
2.76875e-06
2.76869e-06
2.76798e-06
2.76868e-06
2.76856e-06
2.76813e-06
2.76793e-06
2.7682e-06
2.76862e-06
2.76866e-06
2.76785e-06
2.76703e-06
2.76817e-06
2.76813e-06
2.76777e-06
2.76761e-06
2.76782e-06
2.76818e-06
2.76813e-06
2.76677e-06
2.76472e-06
2.76631e-06
2.76783e-06
2.76793e-06
2.76761e-06
2.76746e-06
2.76766e-06
2.76798e-06
2.76777e-06
2.76604e-06
2.76717e-06
2.76826e-06
2.76819e-06
2.76782e-06
2.76766e-06
2.76787e-06
2.76826e-06
2.76824e-06
2.76697e-06
2.7681e-06
2.76874e-06
2.76862e-06
2.76818e-06
2.76797e-06
2.76825e-06
2.76869e-06
2.76874e-06
2.76804e-06
2.76869e-06
2.76866e-06
2.76814e-06
2.76776e-06
2.76823e-06
2.76873e-06
2.76869e-06
2.76786e-06
2.76679e-06
2.76603e-06
2.76694e-06
2.76802e-06
2.72944e-06
2.72809e-06
2.73262e-06
2.73071e-06
2.72955e-06
2.72965e-06
2.72969e-06
2.73446e-06
2.73388e-06
2.73263e-06
2.73019e-06
2.72688e-06
2.72646e-06
2.72647e-06
2.72691e-06
2.73237e-06
2.73151e-06
2.73073e-06
2.72686e-06
2.72674e-06
2.72664e-06
2.72665e-06
2.72677e-06
2.72691e-06
2.73208e-06
2.73512e-06
2.72956e-06
2.72954e-06
2.72645e-06
2.72664e-06
2.72669e-06
2.72671e-06
2.72667e-06
2.72651e-06
2.73083e-06
2.73239e-06
2.72807e-06
2.72962e-06
2.72646e-06
2.72664e-06
2.7267e-06
2.72671e-06
2.72668e-06
2.72652e-06
2.73086e-06
2.72842e-06
2.72966e-06
2.7269e-06
2.72676e-06
2.72666e-06
2.72667e-06
2.7268e-06
2.72697e-06
2.73128e-06
2.73101e-06
2.73443e-06
2.73236e-06
2.72691e-06
2.7265e-06
2.7265e-06
2.72693e-06
2.73303e-06
2.73249e-06
2.73562e-06
2.73387e-06
2.73152e-06
2.73209e-06
2.73083e-06
2.73084e-06
2.73124e-06
2.73237e-06
2.73735e-06
2.73517e-06
2.73248e-06
2.72837e-06
2.73089e-06
2.73556e-06
2.70813e-06
2.70848e-06
2.70818e-06
2.70569e-06
2.70567e-06
2.70528e-06
2.70581e-06
2.71043e-06
2.70986e-06
2.70814e-06
2.70567e-06
2.70378e-06
2.70341e-06
2.70341e-06
2.70387e-06
2.71136e-06
2.70724e-06
2.70566e-06
2.70372e-06
2.70265e-06
2.70254e-06
2.70256e-06
2.70275e-06
2.70403e-06
2.71184e-06
2.71092e-06
2.70826e-06
2.70569e-06
2.70337e-06
2.70252e-06
2.70237e-06
2.7024e-06
2.7026e-06
2.70349e-06
2.71051e-06
2.70908e-06
2.70821e-06
2.70525e-06
2.70339e-06
2.70255e-06
2.70239e-06
2.70241e-06
2.70261e-06
2.7035e-06
2.70974e-06
2.70473e-06
2.70577e-06
2.70385e-06
2.70273e-06
2.70259e-06
2.7026e-06
2.70278e-06
2.70399e-06
2.71136e-06
2.70993e-06
2.71044e-06
2.71135e-06
2.70397e-06
2.70348e-06
2.70347e-06
2.70398e-06
2.71414e-06
2.70997e-06
2.71013e-06
2.70988e-06
2.70726e-06
2.71185e-06
2.71053e-06
2.70974e-06
2.71137e-06
2.71007e-06
2.71238e-06
2.71093e-06
2.70901e-06
2.70481e-06
2.7099e-06
2.71017e-06
2.67852e-06
2.67871e-06
2.67909e-06
2.67615e-06
2.67605e-06
2.67559e-06
2.67634e-06
2.68163e-06
2.68067e-06
2.67891e-06
2.67556e-06
2.67206e-06
2.67189e-06
2.6719e-06
2.67213e-06
2.68222e-06
2.67837e-06
2.67614e-06
2.67206e-06
2.67192e-06
2.67191e-06
2.67192e-06
2.67197e-06
2.67216e-06
2.68394e-06
2.68196e-06
2.67852e-06
2.67607e-06
2.67188e-06
2.67191e-06
2.67193e-06
2.67194e-06
2.67194e-06
2.67192e-06
2.68294e-06
2.67961e-06
2.67867e-06
2.67559e-06
2.6719e-06
2.67192e-06
2.67195e-06
2.67195e-06
2.67194e-06
2.67193e-06
2.68214e-06
2.67541e-06
2.67632e-06
2.67214e-06
2.67198e-06
2.67194e-06
2.67194e-06
2.67199e-06
2.67215e-06
2.68372e-06
2.68049e-06
2.68166e-06
2.68223e-06
2.67218e-06
2.67193e-06
2.67193e-06
2.67218e-06
2.68651e-06
2.6813e-06
2.6813e-06
2.68072e-06
2.67842e-06
2.68397e-06
2.68297e-06
2.68217e-06
2.6838e-06
2.68152e-06
2.6832e-06
2.68199e-06
2.6796e-06
2.67546e-06
2.68055e-06
2.68143e-06
2.65098e-06
2.65125e-06
2.65088e-06
2.64794e-06
2.64786e-06
2.64735e-06
2.64823e-06
2.65387e-06
2.65277e-06
2.65089e-06
2.64611e-06
2.64197e-06
2.64196e-06
2.64196e-06
2.642e-06
2.65343e-06
2.65055e-06
2.64793e-06
2.64197e-06
2.64197e-06
2.64199e-06
2.64199e-06
2.64199e-06
2.64201e-06
2.65639e-06
2.65431e-06
2.65105e-06
2.64787e-06
2.64196e-06
2.64199e-06
2.64201e-06
2.64201e-06
2.642e-06
2.64197e-06
2.6561e-06
2.652e-06
2.65126e-06
2.64735e-06
2.64197e-06
2.642e-06
2.64202e-06
2.64202e-06
2.642e-06
2.64197e-06
2.65545e-06
2.6478e-06
2.64825e-06
2.64202e-06
2.642e-06
2.64201e-06
2.642e-06
2.642e-06
2.64201e-06
2.65656e-06
2.65292e-06
2.65389e-06
2.65343e-06
2.64202e-06
2.64198e-06
2.64198e-06
2.64202e-06
2.65895e-06
2.65349e-06
2.65361e-06
2.65275e-06
2.65054e-06
2.65641e-06
2.65612e-06
2.65549e-06
2.65664e-06
2.65378e-06
2.65534e-06
2.65428e-06
2.652e-06
2.6478e-06
2.65295e-06
2.65369e-06
2.62255e-06
2.62285e-06
2.62243e-06
2.61924e-06
2.61912e-06
2.61859e-06
2.61957e-06
2.62535e-06
2.62424e-06
2.62252e-06
2.617e-06
2.6126e-06
2.61261e-06
2.61262e-06
2.61262e-06
2.62445e-06
2.62199e-06
2.61923e-06
2.61259e-06
2.61261e-06
2.61262e-06
2.61263e-06
2.61262e-06
2.61262e-06
2.62784e-06
2.62581e-06
2.62264e-06
2.61913e-06
2.6126e-06
2.61262e-06
2.61263e-06
2.61264e-06
2.61263e-06
2.61262e-06
2.62777e-06
2.62351e-06
2.62284e-06
2.61858e-06
2.61261e-06
2.61263e-06
2.61264e-06
2.61264e-06
2.61264e-06
2.61263e-06
2.62717e-06
2.6193e-06
2.61957e-06
2.61268e-06
2.61265e-06
2.61265e-06
2.61264e-06
2.61263e-06
2.61263e-06
2.62814e-06
2.62445e-06
2.62541e-06
2.62451e-06
2.61266e-06
2.61265e-06
2.61264e-06
2.61264e-06
2.63043e-06
2.62494e-06
2.62515e-06
2.62428e-06
2.62205e-06
2.62788e-06
2.62781e-06
2.6272e-06
2.6282e-06
2.62524e-06
2.62681e-06
2.62581e-06
2.62354e-06
2.61933e-06
2.62446e-06
2.62522e-06
2.59357e-06
2.59392e-06
2.59332e-06
2.59026e-06
2.59014e-06
2.5896e-06
2.59061e-06
2.59643e-06
2.59531e-06
2.59356e-06
2.58795e-06
2.58345e-06
2.58344e-06
2.58345e-06
2.58345e-06
2.5954e-06
2.59308e-06
2.59025e-06
2.58345e-06
2.58345e-06
2.58345e-06
2.58346e-06
2.58345e-06
2.58345e-06
2.5989e-06
2.59688e-06
2.59375e-06
2.59016e-06
2.58347e-06
2.58347e-06
2.58346e-06
2.58346e-06
2.58346e-06
2.58345e-06
2.59888e-06
2.59459e-06
2.59386e-06
2.58961e-06
2.58349e-06
2.58348e-06
2.58347e-06
2.58347e-06
2.58346e-06
2.58345e-06
2.59829e-06
2.59038e-06
2.59062e-06
2.58349e-06
2.58348e-06
2.58347e-06
2.58347e-06
2.58346e-06
2.58345e-06
2.59922e-06
2.5955e-06
2.59653e-06
2.59545e-06
2.58348e-06
2.58347e-06
2.58346e-06
2.58345e-06
2.60152e-06
2.59603e-06
2.5962e-06
2.59533e-06
2.59318e-06
2.59897e-06
2.59896e-06
2.59835e-06
2.59931e-06
2.59631e-06
2.59786e-06
2.59694e-06
2.59464e-06
2.59044e-06
2.59554e-06
2.59629e-06
2.56456e-06
2.56491e-06
2.56428e-06
2.56123e-06
2.56111e-06
2.56056e-06
2.56156e-06
2.56737e-06
2.56634e-06
2.56453e-06
2.55881e-06
2.55435e-06
2.55435e-06
2.55435e-06
2.55435e-06
2.56632e-06
2.56408e-06
2.5612e-06
2.55434e-06
2.55435e-06
2.55435e-06
2.55435e-06
2.55435e-06
2.55435e-06
2.56988e-06
2.56785e-06
2.5646e-06
2.5611e-06
2.55434e-06
2.55435e-06
2.55435e-06
2.55435e-06
2.55435e-06
2.55435e-06
2.56987e-06
2.56555e-06
2.56493e-06
2.56057e-06
2.55435e-06
2.55435e-06
2.55435e-06
2.55435e-06
2.55435e-06
2.55435e-06
2.56927e-06
2.56133e-06
2.56157e-06
2.55435e-06
2.55435e-06
2.55435e-06
2.55435e-06
2.55435e-06
2.55435e-06
2.57019e-06
2.56646e-06
2.56744e-06
2.56636e-06
2.55435e-06
2.55435e-06
2.55435e-06
2.55435e-06
2.57248e-06
2.56699e-06
2.56716e-06
2.56628e-06
2.56408e-06
2.56991e-06
2.56992e-06
2.56932e-06
2.57027e-06
2.56726e-06
2.56883e-06
2.56787e-06
2.5656e-06
2.56139e-06
2.56651e-06
2.56724e-06
2.53549e-06
2.53584e-06
2.53522e-06
2.53217e-06
2.53204e-06
2.53148e-06
2.53249e-06
2.53831e-06
2.53728e-06
2.53547e-06
2.52974e-06
2.52526e-06
2.52526e-06
2.52525e-06
2.52525e-06
2.53726e-06
2.53502e-06
2.53209e-06
2.52526e-06
2.52526e-06
2.52525e-06
2.52525e-06
2.52525e-06
2.52525e-06
2.5408e-06
2.53878e-06
2.5356e-06
2.53211e-06
2.52525e-06
2.52525e-06
2.52525e-06
2.52525e-06
2.52525e-06
2.52525e-06
2.5408e-06
2.53649e-06
2.53574e-06
2.53149e-06
2.52523e-06
2.52524e-06
2.52524e-06
2.52524e-06
2.52524e-06
2.52524e-06
2.5402e-06
2.53228e-06
2.53243e-06
2.52523e-06
2.52524e-06
2.52524e-06
2.52524e-06
2.52524e-06
2.52525e-06
2.54113e-06
2.53739e-06
2.53832e-06
2.53723e-06
2.52524e-06
2.52524e-06
2.52524e-06
2.52524e-06
2.54341e-06
2.53794e-06
2.53809e-06
2.5372e-06
2.53496e-06
2.5408e-06
2.54082e-06
2.54022e-06
2.54117e-06
2.53819e-06
2.53977e-06
2.53877e-06
2.53649e-06
2.5323e-06
2.5374e-06
2.53816e-06
2.50641e-06
2.50676e-06
2.50614e-06
2.5031e-06
2.50296e-06
2.5024e-06
2.50341e-06
2.50923e-06
2.50819e-06
2.50639e-06
2.50066e-06
2.49617e-06
2.49617e-06
2.49616e-06
2.49616e-06
2.50817e-06
2.50593e-06
2.5031e-06
2.49617e-06
2.49617e-06
2.49616e-06
2.49616e-06
2.49616e-06
2.49616e-06
2.51171e-06
2.5097e-06
2.50661e-06
2.50299e-06
2.49617e-06
2.49616e-06
2.49616e-06
2.49616e-06
2.49616e-06
2.49615e-06
2.51171e-06
2.5074e-06
2.50659e-06
2.5024e-06
2.49615e-06
2.49615e-06
2.49615e-06
2.49615e-06
2.49615e-06
2.49615e-06
2.51112e-06
2.50319e-06
2.50331e-06
2.49614e-06
2.49614e-06
2.49615e-06
2.49615e-06
2.49615e-06
2.49615e-06
2.51203e-06
2.5083e-06
2.50919e-06
2.50813e-06
2.49614e-06
2.49614e-06
2.49615e-06
2.49615e-06
2.51433e-06
2.50885e-06
2.509e-06
2.5081e-06
2.50586e-06
2.51171e-06
2.51174e-06
2.51114e-06
2.51209e-06
2.5091e-06
2.51069e-06
2.50967e-06
2.5074e-06
2.5032e-06
2.50832e-06
2.50907e-06
2.47733e-06
2.47768e-06
2.47706e-06
2.47399e-06
2.47385e-06
2.4733e-06
2.47432e-06
2.48014e-06
2.4791e-06
2.4773e-06
2.47159e-06
2.46707e-06
2.46707e-06
2.46707e-06
2.46707e-06
2.47908e-06
2.47684e-06
2.47393e-06
2.46708e-06
2.46707e-06
2.46707e-06
2.46706e-06
2.46706e-06
2.46706e-06
2.48262e-06
2.48061e-06
2.47734e-06
2.4739e-06
2.46707e-06
2.46707e-06
2.46706e-06
2.46706e-06
2.46706e-06
2.46706e-06
2.48262e-06
2.47831e-06
2.4776e-06
2.4733e-06
2.46706e-06
2.46706e-06
2.46706e-06
2.46706e-06
2.46706e-06
2.46706e-06
2.48203e-06
2.4741e-06
2.47425e-06
2.46705e-06
2.46705e-06
2.46706e-06
2.46706e-06
2.46706e-06
2.46706e-06
2.48295e-06
2.47921e-06
2.48014e-06
2.47904e-06
2.46705e-06
2.46705e-06
2.46706e-06
2.46706e-06
2.48524e-06
2.47976e-06
2.47991e-06
2.47901e-06
2.47682e-06
2.48263e-06
2.48262e-06
2.48204e-06
2.48301e-06
2.48002e-06
2.4816e-06
2.48057e-06
2.4783e-06
2.4741e-06
2.47925e-06
2.47999e-06
2.44821e-06
2.44856e-06
2.44796e-06
2.44488e-06
2.44475e-06
2.4442e-06
2.44521e-06
2.45103e-06
2.45e-06
2.44821e-06
2.44247e-06
2.43796e-06
2.43796e-06
2.43796e-06
2.43796e-06
2.44998e-06
2.44774e-06
2.44487e-06
2.43796e-06
2.43796e-06
2.43796e-06
2.43796e-06
2.43796e-06
2.43796e-06
2.45353e-06
2.45151e-06
2.44826e-06
2.44476e-06
2.43796e-06
2.43796e-06
2.43796e-06
2.43796e-06
2.43796e-06
2.43796e-06
2.45353e-06
2.44923e-06
2.44861e-06
2.4442e-06
2.43796e-06
2.43796e-06
2.43796e-06
2.43796e-06
2.43796e-06
2.43796e-06
2.45293e-06
2.445e-06
2.44519e-06
2.43796e-06
2.43796e-06
2.43796e-06
2.43796e-06
2.43796e-06
2.43796e-06
2.45384e-06
2.45012e-06
2.45106e-06
2.44996e-06
2.43796e-06
2.43796e-06
2.43796e-06
2.43796e-06
2.45613e-06
2.45066e-06
2.45081e-06
2.44991e-06
2.44773e-06
2.45355e-06
2.45355e-06
2.45297e-06
2.45392e-06
2.45092e-06
2.4525e-06
2.4515e-06
2.44922e-06
2.44505e-06
2.45014e-06
2.45089e-06
2.41911e-06
2.41946e-06
2.41884e-06
2.41577e-06
2.41564e-06
2.41509e-06
2.41611e-06
2.42193e-06
2.4209e-06
2.41909e-06
2.41336e-06
2.40885e-06
2.40886e-06
2.40886e-06
2.40886e-06
2.42088e-06
2.41865e-06
2.41577e-06
2.40886e-06
2.40886e-06
2.40886e-06
2.40886e-06
2.40887e-06
2.40887e-06
2.42443e-06
2.42241e-06
2.41927e-06
2.41568e-06
2.40886e-06
2.40886e-06
2.40887e-06
2.40887e-06
2.40887e-06
2.40887e-06
2.42443e-06
2.42012e-06
2.41955e-06
2.41513e-06
2.40888e-06
2.40887e-06
2.40887e-06
2.40887e-06
2.40887e-06
2.40887e-06
2.42384e-06
2.41591e-06
2.4161e-06
2.40889e-06
2.40888e-06
2.40888e-06
2.40888e-06
2.40887e-06
2.40887e-06
2.42475e-06
2.42102e-06
2.42198e-06
2.4209e-06
2.40889e-06
2.40888e-06
2.40888e-06
2.40888e-06
2.42707e-06
2.42157e-06
2.42172e-06
2.42084e-06
2.41866e-06
2.42447e-06
2.42445e-06
2.42387e-06
2.42484e-06
2.42184e-06
2.42342e-06
2.42241e-06
2.42013e-06
2.41594e-06
2.42107e-06
2.42181e-06
2.39e-06
2.39036e-06
2.38972e-06
2.38668e-06
2.38654e-06
2.38599e-06
2.38701e-06
2.39283e-06
2.3918e-06
2.38997e-06
2.38425e-06
2.37975e-06
2.37976e-06
2.37976e-06
2.37976e-06
2.39178e-06
2.38955e-06
2.38664e-06
2.37975e-06
2.37976e-06
2.37976e-06
2.37977e-06
2.37977e-06
2.37977e-06
2.39533e-06
2.39331e-06
2.39017e-06
2.38655e-06
2.37976e-06
2.37976e-06
2.37977e-06
2.37977e-06
2.37977e-06
2.37977e-06
2.39533e-06
2.39103e-06
2.39027e-06
2.386e-06
2.37978e-06
2.37978e-06
2.37977e-06
2.37977e-06
2.37977e-06
2.37977e-06
2.39475e-06
2.38682e-06
2.38701e-06
2.37978e-06
2.37978e-06
2.37978e-06
2.37978e-06
2.37978e-06
2.37978e-06
2.39566e-06
2.39193e-06
2.39293e-06
2.39181e-06
2.37979e-06
2.37978e-06
2.37978e-06
2.37978e-06
2.39796e-06
2.39248e-06
2.39263e-06
2.39176e-06
2.38961e-06
2.3954e-06
2.3954e-06
2.3948e-06
2.39575e-06
2.39275e-06
2.39432e-06
2.39336e-06
2.39105e-06
2.38685e-06
2.39198e-06
2.39272e-06
2.3609e-06
2.36126e-06
2.36063e-06
2.35758e-06
2.35745e-06
2.3569e-06
2.35792e-06
2.36374e-06
2.36271e-06
2.36087e-06
2.35516e-06
2.35066e-06
2.35067e-06
2.35067e-06
2.35067e-06
2.36269e-06
2.36045e-06
2.35757e-06
2.35067e-06
2.35067e-06
2.35067e-06
2.35067e-06
2.35067e-06
2.35068e-06
2.36623e-06
2.36422e-06
2.36109e-06
2.35748e-06
2.35067e-06
2.35067e-06
2.35067e-06
2.35068e-06
2.35068e-06
2.35068e-06
2.36623e-06
2.36193e-06
2.36135e-06
2.3569e-06
2.35068e-06
2.35068e-06
2.35068e-06
2.35068e-06
2.35068e-06
2.35068e-06
2.36565e-06
2.35772e-06
2.35786e-06
2.35068e-06
2.35069e-06
2.35068e-06
2.35068e-06
2.35068e-06
2.35068e-06
2.36656e-06
2.36284e-06
2.3638e-06
2.36272e-06
2.35069e-06
2.35068e-06
2.35068e-06
2.35068e-06
2.36886e-06
2.36338e-06
2.36353e-06
2.3627e-06
2.36045e-06
2.36627e-06
2.36629e-06
2.3657e-06
2.36664e-06
2.36365e-06
2.36523e-06
2.36424e-06
2.36195e-06
2.35776e-06
2.36288e-06
2.36363e-06
2.33183e-06
2.33219e-06
2.33154e-06
2.3285e-06
2.32836e-06
2.32781e-06
2.32883e-06
2.33465e-06
2.33362e-06
2.33179e-06
2.32606e-06
2.32158e-06
2.32158e-06
2.32158e-06
2.32158e-06
2.3336e-06
2.33136e-06
2.32846e-06
2.32158e-06
2.32158e-06
2.32158e-06
2.32158e-06
2.32158e-06
2.32158e-06
2.33714e-06
2.33513e-06
2.33193e-06
2.32838e-06
2.32158e-06
2.32158e-06
2.32158e-06
2.32158e-06
2.32158e-06
2.32159e-06
2.33714e-06
2.33284e-06
2.33211e-06
2.32783e-06
2.32158e-06
2.32158e-06
2.32158e-06
2.32158e-06
2.32159e-06
2.32159e-06
2.33656e-06
2.32863e-06
2.32881e-06
2.32158e-06
2.32158e-06
2.32158e-06
2.32159e-06
2.32159e-06
2.32159e-06
2.33748e-06
2.33374e-06
2.33467e-06
2.33356e-06
2.32159e-06
2.32158e-06
2.32158e-06
2.32158e-06
2.33978e-06
2.33429e-06
2.33444e-06
2.33362e-06
2.33135e-06
2.33716e-06
2.33717e-06
2.33659e-06
2.33754e-06
2.33456e-06
2.33614e-06
2.33513e-06
2.33285e-06
2.32866e-06
2.33378e-06
2.33453e-06
2.30273e-06
2.30308e-06
2.30245e-06
2.2994e-06
2.29927e-06
2.29871e-06
2.29973e-06
2.30555e-06
2.30452e-06
2.30272e-06
2.29697e-06
2.29248e-06
2.29248e-06
2.29248e-06
2.29249e-06
2.3045e-06
2.30227e-06
2.29936e-06
2.29248e-06
2.29248e-06
2.29248e-06
2.29249e-06
2.29249e-06
2.29249e-06
2.30805e-06
2.30603e-06
2.30279e-06
2.29927e-06
2.29248e-06
2.29248e-06
2.29248e-06
2.29249e-06
2.29249e-06
2.29249e-06
2.30806e-06
2.30375e-06
2.30311e-06
2.29874e-06
2.29248e-06
2.29248e-06
2.29248e-06
2.29249e-06
2.29249e-06
2.2925e-06
2.30747e-06
2.29953e-06
2.2997e-06
2.29247e-06
2.29248e-06
2.29248e-06
2.29249e-06
2.2925e-06
2.2925e-06
2.30839e-06
2.30465e-06
2.30557e-06
2.30448e-06
2.29247e-06
2.29249e-06
2.2925e-06
2.2925e-06
2.31068e-06
2.30519e-06
2.30535e-06
2.30452e-06
2.30224e-06
2.30805e-06
2.30804e-06
2.30749e-06
2.30844e-06
2.30547e-06
2.30702e-06
2.30601e-06
2.30375e-06
2.29955e-06
2.30466e-06
2.30543e-06
2.27363e-06
2.27398e-06
2.27336e-06
2.27031e-06
2.27018e-06
2.26962e-06
2.27063e-06
2.27645e-06
2.27543e-06
2.27361e-06
2.26788e-06
2.26339e-06
2.26339e-06
2.26339e-06
2.26339e-06
2.2754e-06
2.27317e-06
2.27027e-06
2.26338e-06
2.26339e-06
2.26339e-06
2.26339e-06
2.26339e-06
2.26339e-06
2.27896e-06
2.27694e-06
2.27368e-06
2.27016e-06
2.26338e-06
2.26338e-06
2.26339e-06
2.26339e-06
2.26339e-06
2.2634e-06
2.27896e-06
2.27465e-06
2.274e-06
2.26961e-06
2.26338e-06
2.26338e-06
2.26339e-06
2.26339e-06
2.2634e-06
2.2634e-06
2.27838e-06
2.27045e-06
2.27062e-06
2.26337e-06
2.26338e-06
2.26338e-06
2.2634e-06
2.26341e-06
2.26341e-06
2.27931e-06
2.27556e-06
2.27645e-06
2.27538e-06
2.26337e-06
2.26338e-06
2.2634e-06
2.26341e-06
2.28161e-06
2.27613e-06
2.27627e-06
2.27539e-06
2.27312e-06
2.27894e-06
2.2789e-06
2.2784e-06
2.27934e-06
2.2764e-06
2.27795e-06
2.27692e-06
2.2747e-06
2.27038e-06
2.27557e-06
2.27636e-06
2.24455e-06
2.2449e-06
2.24426e-06
2.24121e-06
2.24108e-06
2.24053e-06
2.24155e-06
2.24736e-06
2.24633e-06
2.24451e-06
2.23878e-06
2.23429e-06
2.23429e-06
2.23429e-06
2.23429e-06
2.24631e-06
2.24407e-06
2.24118e-06
2.23429e-06
2.23429e-06
2.23429e-06
2.23429e-06
2.23429e-06
2.23429e-06
2.24985e-06
2.24784e-06
2.24449e-06
2.24105e-06
2.23429e-06
2.23429e-06
2.23429e-06
2.23429e-06
2.2343e-06
2.2343e-06
2.24985e-06
2.24555e-06
2.2448e-06
2.24054e-06
2.23429e-06
2.23429e-06
2.23429e-06
2.2343e-06
2.2343e-06
2.2343e-06
2.24927e-06
2.24134e-06
2.2415e-06
2.23428e-06
2.23428e-06
2.23429e-06
2.2343e-06
2.2343e-06
2.23431e-06
2.2502e-06
2.24646e-06
2.24735e-06
2.24629e-06
2.23428e-06
2.23429e-06
2.2343e-06
2.23431e-06
2.25251e-06
2.247e-06
2.24716e-06
2.2463e-06
2.24404e-06
2.24985e-06
2.24982e-06
2.24927e-06
2.25027e-06
2.24731e-06
2.24885e-06
2.24778e-06
2.24562e-06
2.24137e-06
2.24647e-06
2.24724e-06
2.21544e-06
2.21579e-06
2.21517e-06
2.21212e-06
2.21198e-06
2.21142e-06
2.21243e-06
2.21826e-06
2.21723e-06
2.21542e-06
2.20969e-06
2.2052e-06
2.20519e-06
2.20519e-06
2.20519e-06
2.21721e-06
2.21497e-06
2.21208e-06
2.2052e-06
2.20519e-06
2.20519e-06
2.20519e-06
2.20519e-06
2.20519e-06
2.22075e-06
2.21874e-06
2.21549e-06
2.21199e-06
2.2052e-06
2.20519e-06
2.20519e-06
2.20519e-06
2.20519e-06
2.20519e-06
2.22075e-06
2.21644e-06
2.21574e-06
2.21141e-06
2.2052e-06
2.2052e-06
2.20519e-06
2.20519e-06
2.20519e-06
2.20518e-06
2.22016e-06
2.21223e-06
2.21244e-06
2.2052e-06
2.2052e-06
2.20519e-06
2.20518e-06
2.20518e-06
2.20518e-06
2.22108e-06
2.21734e-06
2.21828e-06
2.2172e-06
2.20521e-06
2.2052e-06
2.20518e-06
2.20517e-06
2.22336e-06
2.21789e-06
2.21803e-06
2.21724e-06
2.21496e-06
2.22077e-06
2.22089e-06
2.22023e-06
2.22115e-06
2.21814e-06
2.21971e-06
2.21873e-06
2.21644e-06
2.21231e-06
2.21739e-06
2.21814e-06
2.18634e-06
2.18668e-06
2.18608e-06
2.18303e-06
2.18289e-06
2.18233e-06
2.18333e-06
2.18916e-06
2.18813e-06
2.18633e-06
2.18059e-06
2.1761e-06
2.1761e-06
2.1761e-06
2.17609e-06
2.18811e-06
2.18587e-06
2.18298e-06
2.17609e-06
2.1761e-06
2.1761e-06
2.1761e-06
2.17609e-06
2.17609e-06
2.19165e-06
2.18964e-06
2.18641e-06
2.18289e-06
2.1761e-06
2.1761e-06
2.1761e-06
2.1761e-06
2.17609e-06
2.17609e-06
2.19166e-06
2.18735e-06
2.18667e-06
2.18234e-06
2.1761e-06
2.1761e-06
2.1761e-06
2.1761e-06
2.17609e-06
2.17609e-06
2.19106e-06
2.18313e-06
2.18336e-06
2.17611e-06
2.17611e-06
2.1761e-06
2.17609e-06
2.17609e-06
2.17609e-06
2.19197e-06
2.18823e-06
2.1892e-06
2.18812e-06
2.17611e-06
2.1761e-06
2.17609e-06
2.17608e-06
2.19426e-06
2.18877e-06
2.18892e-06
2.18817e-06
2.18588e-06
2.19168e-06
2.1918e-06
2.19112e-06
2.19204e-06
2.18904e-06
2.1906e-06
2.18966e-06
2.18728e-06
2.18329e-06
2.18824e-06
2.18898e-06
2.15724e-06
2.15756e-06
2.15698e-06
2.15392e-06
2.1538e-06
2.15324e-06
2.15423e-06
2.16007e-06
2.15903e-06
2.15724e-06
2.1515e-06
2.147e-06
2.147e-06
2.147e-06
2.147e-06
2.15901e-06
2.15678e-06
2.15389e-06
2.147e-06
2.147e-06
2.147e-06
2.147e-06
2.147e-06
2.147e-06
2.16256e-06
2.16055e-06
2.15729e-06
2.1538e-06
2.147e-06
2.147e-06
2.147e-06
2.147e-06
2.147e-06
2.147e-06
2.16257e-06
2.15826e-06
2.15762e-06
2.15324e-06
2.147e-06
2.147e-06
2.147e-06
2.14701e-06
2.14701e-06
2.14701e-06
2.16197e-06
2.15404e-06
2.15425e-06
2.147e-06
2.147e-06
2.147e-06
2.14701e-06
2.14701e-06
2.14701e-06
2.16289e-06
2.15915e-06
2.1601e-06
2.15901e-06
2.14699e-06
2.147e-06
2.14701e-06
2.14702e-06
2.16519e-06
2.15971e-06
2.15984e-06
2.15905e-06
2.15677e-06
2.16256e-06
2.16252e-06
2.16196e-06
2.16296e-06
2.15999e-06
2.16153e-06
2.16056e-06
2.15832e-06
2.15399e-06
2.15914e-06
2.15991e-06
2.12814e-06
2.12847e-06
2.12788e-06
2.12483e-06
2.12469e-06
2.12413e-06
2.12513e-06
2.13097e-06
2.12994e-06
2.12815e-06
2.1224e-06
2.11791e-06
2.11791e-06
2.11791e-06
2.11791e-06
2.12992e-06
2.12768e-06
2.1248e-06
2.11791e-06
2.11791e-06
2.11791e-06
2.11791e-06
2.11791e-06
2.11791e-06
2.13346e-06
2.13145e-06
2.12821e-06
2.12469e-06
2.11791e-06
2.11791e-06
2.11791e-06
2.11791e-06
2.11791e-06
2.11791e-06
2.13347e-06
2.12916e-06
2.12851e-06
2.12414e-06
2.11791e-06
2.11791e-06
2.11791e-06
2.11791e-06
2.11791e-06
2.11791e-06
2.13288e-06
2.12495e-06
2.12515e-06
2.1179e-06
2.11791e-06
2.11791e-06
2.11791e-06
2.11792e-06
2.11791e-06
2.13381e-06
2.13007e-06
2.13099e-06
2.12992e-06
2.1179e-06
2.11791e-06
2.11792e-06
2.11793e-06
2.1361e-06
2.13062e-06
2.13076e-06
2.12995e-06
2.12768e-06
2.13349e-06
2.13346e-06
2.13287e-06
2.13389e-06
2.1309e-06
2.13245e-06
2.13143e-06
2.12924e-06
2.12499e-06
2.13008e-06
2.13083e-06
2.0991e-06
2.09936e-06
2.09879e-06
2.09574e-06
2.0956e-06
2.09504e-06
2.09604e-06
2.10188e-06
2.10084e-06
2.09904e-06
2.0933e-06
2.08881e-06
2.08881e-06
2.08881e-06
2.08881e-06
2.10081e-06
2.09859e-06
2.09571e-06
2.08882e-06
2.08881e-06
2.08881e-06
2.08881e-06
2.08881e-06
2.08881e-06
2.10437e-06
2.10235e-06
2.09907e-06
2.09561e-06
2.08882e-06
2.08881e-06
2.08881e-06
2.08881e-06
2.08881e-06
2.08881e-06
2.10437e-06
2.10006e-06
2.09939e-06
2.09504e-06
2.08882e-06
2.08882e-06
2.08881e-06
2.08881e-06
2.0888e-06
2.0888e-06
2.10377e-06
2.09584e-06
2.09606e-06
2.08883e-06
2.08882e-06
2.08881e-06
2.0888e-06
2.0888e-06
2.08879e-06
2.10469e-06
2.10096e-06
2.1019e-06
2.10081e-06
2.08882e-06
2.08881e-06
2.0888e-06
2.08879e-06
2.10698e-06
2.10149e-06
2.10164e-06
2.10086e-06
2.09858e-06
2.10438e-06
2.10443e-06
2.10386e-06
2.10478e-06
2.10175e-06
2.10333e-06
2.10235e-06
2.10004e-06
2.09592e-06
2.101e-06
2.10173e-06
2.07001e-06
2.07029e-06
2.06969e-06
2.06664e-06
2.06651e-06
2.06595e-06
2.06696e-06
2.07279e-06
2.07175e-06
2.06995e-06
2.06421e-06
2.05971e-06
2.05971e-06
2.05971e-06
2.05971e-06
2.07172e-06
2.06949e-06
2.06661e-06
2.05971e-06
2.05971e-06
2.05971e-06
2.05971e-06
2.05971e-06
2.05971e-06
2.07527e-06
2.07325e-06
2.07002e-06
2.0665e-06
2.05972e-06
2.05972e-06
2.05971e-06
2.05971e-06
2.05971e-06
2.05971e-06
2.07527e-06
2.07096e-06
2.07034e-06
2.06596e-06
2.05972e-06
2.05972e-06
2.05972e-06
2.05971e-06
2.0597e-06
2.0597e-06
2.07467e-06
2.06674e-06
2.06698e-06
2.05973e-06
2.05973e-06
2.05972e-06
2.05971e-06
2.0597e-06
2.0597e-06
2.07558e-06
2.07185e-06
2.07282e-06
2.07173e-06
2.05973e-06
2.05972e-06
2.05971e-06
2.0597e-06
2.07787e-06
2.07237e-06
2.07254e-06
2.0718e-06
2.0695e-06
2.07528e-06
2.07531e-06
2.07475e-06
2.07565e-06
2.07265e-06
2.0742e-06
2.07329e-06
2.07088e-06
2.06687e-06
2.07185e-06
2.07258e-06
2.04091e-06
2.04127e-06
2.0406e-06
2.03755e-06
2.03742e-06
2.03689e-06
2.03785e-06
2.04369e-06
2.04266e-06
2.04084e-06
2.03511e-06
2.03062e-06
2.03062e-06
2.03062e-06
2.03062e-06
2.04263e-06
2.0404e-06
2.03751e-06
2.03062e-06
2.03062e-06
2.03062e-06
2.03062e-06
2.03061e-06
2.03061e-06
2.04617e-06
2.04416e-06
2.04092e-06
2.03741e-06
2.03062e-06
2.03062e-06
2.03062e-06
2.03061e-06
2.03061e-06
2.03061e-06
2.04617e-06
2.04186e-06
2.04123e-06
2.03685e-06
2.03062e-06
2.03062e-06
2.03062e-06
2.03061e-06
2.03061e-06
2.03061e-06
2.04558e-06
2.03764e-06
2.03786e-06
2.03062e-06
2.03062e-06
2.03062e-06
2.03061e-06
2.03061e-06
2.0306e-06
2.0465e-06
2.04276e-06
2.04371e-06
2.04262e-06
2.03062e-06
2.03061e-06
2.03061e-06
2.0306e-06
2.04878e-06
2.0433e-06
2.04345e-06
2.04268e-06
2.04037e-06
2.04617e-06
2.0463e-06
2.04564e-06
2.04656e-06
2.04357e-06
2.04513e-06
2.04412e-06
2.04184e-06
2.03775e-06
2.0428e-06
2.04355e-06
2.01183e-06
2.01214e-06
2.0115e-06
2.00844e-06
2.00831e-06
2.00776e-06
2.00878e-06
2.0146e-06
2.01356e-06
2.01175e-06
2.00601e-06
2.00152e-06
2.00152e-06
2.00152e-06
2.00152e-06
2.01354e-06
2.0113e-06
2.0084e-06
2.00152e-06
2.00152e-06
2.00152e-06
2.00152e-06
2.00152e-06
2.00152e-06
2.01708e-06
2.01507e-06
2.01178e-06
2.0083e-06
2.00152e-06
2.00152e-06
2.00152e-06
2.00152e-06
2.00152e-06
2.00152e-06
2.01708e-06
2.01277e-06
2.01213e-06
2.00777e-06
2.00152e-06
2.00152e-06
2.00152e-06
2.00152e-06
2.00152e-06
2.00152e-06
2.01649e-06
2.00856e-06
2.00874e-06
2.00152e-06
2.00152e-06
2.00152e-06
2.00152e-06
2.00151e-06
2.00151e-06
2.0174e-06
2.01366e-06
2.0146e-06
2.01348e-06
2.00152e-06
2.00152e-06
2.00152e-06
2.00152e-06
2.0197e-06
2.0142e-06
2.01435e-06
2.01357e-06
2.01126e-06
2.01708e-06
2.0171e-06
2.01652e-06
2.01746e-06
2.01448e-06
2.01604e-06
2.01505e-06
2.01276e-06
2.00859e-06
2.01371e-06
2.01445e-06
1.98269e-06
1.98303e-06
1.98242e-06
1.97938e-06
1.97923e-06
1.97867e-06
1.97968e-06
1.9855e-06
1.98447e-06
1.98265e-06
1.97691e-06
1.97245e-06
1.97244e-06
1.97243e-06
1.97243e-06
1.98445e-06
1.98221e-06
1.97929e-06
1.97244e-06
1.97244e-06
1.97244e-06
1.97243e-06
1.97243e-06
1.97243e-06
1.98799e-06
1.98597e-06
1.98275e-06
1.97929e-06
1.97243e-06
1.97243e-06
1.97243e-06
1.97243e-06
1.97243e-06
1.97243e-06
1.98799e-06
1.98368e-06
1.98289e-06
1.97866e-06
1.97242e-06
1.97242e-06
1.97243e-06
1.97243e-06
1.97243e-06
1.97243e-06
1.98739e-06
1.97946e-06
1.97963e-06
1.97242e-06
1.97242e-06
1.97242e-06
1.97242e-06
1.97242e-06
1.97242e-06
1.9883e-06
1.98457e-06
1.9855e-06
1.9844e-06
1.97241e-06
1.97242e-06
1.97242e-06
1.97242e-06
1.9906e-06
1.98512e-06
1.98527e-06
1.98446e-06
1.98215e-06
1.98797e-06
1.98799e-06
1.98741e-06
1.98837e-06
1.98538e-06
1.98696e-06
1.98593e-06
1.98367e-06
1.97948e-06
1.98462e-06
1.98536e-06
1.95361e-06
1.95395e-06
1.95334e-06
1.95029e-06
1.95014e-06
1.94958e-06
1.95059e-06
1.95641e-06
1.95538e-06
1.9536e-06
1.94784e-06
1.94335e-06
1.94335e-06
1.94335e-06
1.94334e-06
1.95535e-06
1.95312e-06
1.95029e-06
1.94335e-06
1.94335e-06
1.94334e-06
1.94334e-06
1.94334e-06
1.94334e-06
1.95889e-06
1.95688e-06
1.95377e-06
1.95019e-06
1.94335e-06
1.94334e-06
1.94334e-06
1.94334e-06
1.94334e-06
1.94334e-06
1.95889e-06
1.95459e-06
1.95381e-06
1.94958e-06
1.94333e-06
1.94333e-06
1.94333e-06
1.94333e-06
1.94333e-06
1.94333e-06
1.9583e-06
1.95037e-06
1.95049e-06
1.94333e-06
1.94332e-06
1.94333e-06
1.94333e-06
1.94333e-06
1.94334e-06
1.95922e-06
1.95549e-06
1.95636e-06
1.95528e-06
1.94332e-06
1.94332e-06
1.94333e-06
1.94333e-06
1.96151e-06
1.95603e-06
1.95618e-06
1.95536e-06
1.953e-06
1.95888e-06
1.95892e-06
1.95833e-06
1.95926e-06
1.95628e-06
1.95787e-06
1.95684e-06
1.95458e-06
1.95039e-06
1.9555e-06
1.95625e-06
1.9245e-06
1.92485e-06
1.92424e-06
1.92117e-06
1.92104e-06
1.92048e-06
1.9215e-06
1.92732e-06
1.92628e-06
1.92446e-06
1.91876e-06
1.91426e-06
1.91425e-06
1.91425e-06
1.91425e-06
1.92626e-06
1.92402e-06
1.92112e-06
1.91426e-06
1.91425e-06
1.91425e-06
1.91425e-06
1.91425e-06
1.91424e-06
1.92981e-06
1.92779e-06
1.92459e-06
1.92109e-06
1.91424e-06
1.91425e-06
1.91424e-06
1.91424e-06
1.91424e-06
1.91424e-06
1.9298e-06
1.92549e-06
1.92481e-06
1.92047e-06
1.91423e-06
1.91424e-06
1.91424e-06
1.91424e-06
1.91424e-06
1.91424e-06
1.92921e-06
1.92128e-06
1.92144e-06
1.91423e-06
1.91423e-06
1.91423e-06
1.91424e-06
1.91424e-06
1.91424e-06
1.93012e-06
1.92639e-06
1.92731e-06
1.92622e-06
1.91423e-06
1.91423e-06
1.91423e-06
1.91424e-06
1.93241e-06
1.92694e-06
1.92709e-06
1.92617e-06
1.924e-06
1.92981e-06
1.92981e-06
1.92923e-06
1.93018e-06
1.92719e-06
1.92878e-06
1.92776e-06
1.92549e-06
1.92129e-06
1.92641e-06
1.92716e-06
1.89541e-06
1.89576e-06
1.89515e-06
1.89207e-06
1.89194e-06
1.89138e-06
1.8924e-06
1.89822e-06
1.89719e-06
1.89539e-06
1.88965e-06
1.88515e-06
1.88515e-06
1.88515e-06
1.88515e-06
1.89717e-06
1.89493e-06
1.89205e-06
1.88515e-06
1.88515e-06
1.88515e-06
1.88515e-06
1.88515e-06
1.88515e-06
1.90072e-06
1.8987e-06
1.89542e-06
1.89192e-06
1.88515e-06
1.88515e-06
1.88515e-06
1.88515e-06
1.88515e-06
1.88515e-06
1.90071e-06
1.8964e-06
1.89573e-06
1.8914e-06
1.88514e-06
1.88514e-06
1.88514e-06
1.88514e-06
1.88515e-06
1.88514e-06
1.90012e-06
1.89219e-06
1.89237e-06
1.88514e-06
1.88514e-06
1.88514e-06
1.88514e-06
1.88514e-06
1.88514e-06
1.90102e-06
1.89729e-06
1.89824e-06
1.89713e-06
1.88514e-06
1.88514e-06
1.88515e-06
1.88515e-06
1.90332e-06
1.89784e-06
1.89799e-06
1.8971e-06
1.8949e-06
1.90072e-06
1.90071e-06
1.90014e-06
1.90111e-06
1.8981e-06
1.89969e-06
1.89866e-06
1.8964e-06
1.8922e-06
1.89735e-06
1.89808e-06
1.8663e-06
1.86665e-06
1.86604e-06
1.86296e-06
1.86283e-06
1.86228e-06
1.8633e-06
1.86912e-06
1.86809e-06
1.86629e-06
1.86055e-06
1.85605e-06
1.85605e-06
1.85605e-06
1.85605e-06
1.86807e-06
1.86583e-06
1.86294e-06
1.85605e-06
1.85605e-06
1.85605e-06
1.85605e-06
1.85605e-06
1.85605e-06
1.87161e-06
1.8696e-06
1.86633e-06
1.86283e-06
1.85605e-06
1.85605e-06
1.85605e-06
1.85605e-06
1.85605e-06
1.85605e-06
1.87161e-06
1.8673e-06
1.86663e-06
1.86229e-06
1.85604e-06
1.85605e-06
1.85605e-06
1.85605e-06
1.85605e-06
1.85605e-06
1.87102e-06
1.86309e-06
1.86328e-06
1.85605e-06
1.85604e-06
1.85605e-06
1.85605e-06
1.85605e-06
1.85605e-06
1.87193e-06
1.86821e-06
1.86914e-06
1.86804e-06
1.85604e-06
1.85604e-06
1.85605e-06
1.85605e-06
1.87423e-06
1.86875e-06
1.8689e-06
1.868e-06
1.86581e-06
1.87162e-06
1.87163e-06
1.87106e-06
1.87201e-06