/*--------------------------------*- C++ -*----------------------------------*\
| =========                 |                                                 |
| \\      /  F ield         | OpenFOAM: The Open Source CFD Toolbox           |
|  \\    /   O peration     | Version:  v2012                                 |
|   \\  /    A nd           | Website:  www.openfoam.com                      |
|    \\/     M anipulation  |                                                 |
\*---------------------------------------------------------------------------*/
FoamFile
{
    version     2.0;
    format      ascii;
    class       volScalarField;
    location    "1";
    object      p;
}
// * * * * * * * * * * * * * * * * * * * * * * * * * * * * * * * * * * * * * //

dimensions      [0 2 -2 0 0 0 0];


internalField   nonuniform List<scalar> 
244288
(
1.71974e-06
1.71917e-06
1.7194e-06
1.7195e-06
1.71951e-06
1.7195e-06
1.71938e-06
1.71917e-06
1.71918e-06
1.71924e-06
1.71916e-06
1.71912e-06
1.71917e-06
1.71925e-06
1.71916e-06
1.7194e-06
1.71924e-06
1.71894e-06
1.71862e-06
1.7185e-06
1.71866e-06
1.71899e-06
1.71927e-06
1.71944e-06
1.7195e-06
1.71916e-06
1.71862e-06
1.71817e-06
1.71801e-06
1.71821e-06
1.71869e-06
1.71922e-06
1.71954e-06
1.71973e-06
1.71951e-06
1.71912e-06
1.7185e-06
1.71801e-06
1.71784e-06
1.71806e-06
1.71859e-06
1.71919e-06
1.71954e-06
1.71949e-06
1.71917e-06
1.71866e-06
1.71821e-06
1.71806e-06
1.71826e-06
1.71872e-06
1.71923e-06
1.71954e-06
1.71937e-06
1.71924e-06
1.71899e-06
1.71869e-06
1.71858e-06
1.71872e-06
1.71903e-06
1.71927e-06
1.71941e-06
1.71916e-06
1.71927e-06
1.71922e-06
1.71919e-06
1.71923e-06
1.71927e-06
1.71914e-06
1.71944e-06
1.71954e-06
1.71954e-06
1.71954e-06
1.71941e-06
1.68664e-06
1.68627e-06
1.68492e-06
1.6841e-06
1.68412e-06
1.68424e-06
1.68405e-06
1.68501e-06
1.68504e-06
1.68492e-06
1.68354e-06
1.68101e-06
1.68111e-06
1.68111e-06
1.68101e-06
1.68322e-06
1.68391e-06
1.68411e-06
1.68101e-06
1.68118e-06
1.68128e-06
1.68128e-06
1.68118e-06
1.68101e-06
1.68359e-06
1.68531e-06
1.68665e-06
1.68413e-06
1.68111e-06
1.68128e-06
1.68137e-06
1.68137e-06
1.68128e-06
1.68111e-06
1.68359e-06
1.68568e-06
1.68628e-06
1.68424e-06
1.68111e-06
1.68128e-06
1.68137e-06
1.68137e-06
1.68128e-06
1.68111e-06
1.68365e-06
1.68466e-06
1.68405e-06
1.68101e-06
1.68118e-06
1.68128e-06
1.68128e-06
1.68118e-06
1.68101e-06
1.68354e-06
1.68557e-06
1.68501e-06
1.68322e-06
1.68101e-06
1.68111e-06
1.68111e-06
1.68101e-06
1.68282e-06
1.68371e-06
1.6853e-06
1.68504e-06
1.68391e-06
1.68359e-06
1.6836e-06
1.68365e-06
1.68355e-06
1.68373e-06
1.68489e-06
1.68532e-06
1.68569e-06
1.68466e-06
1.68557e-06
1.6853e-06
1.66871e-06
1.66847e-06
1.66833e-06
1.66672e-06
1.66661e-06
1.66662e-06
1.66665e-06
1.66818e-06
1.66838e-06
1.66834e-06
1.66635e-06
1.66323e-06
1.66321e-06
1.66321e-06
1.66323e-06
1.66597e-06
1.66685e-06
1.66673e-06
1.66324e-06
1.66324e-06
1.66323e-06
1.66323e-06
1.66324e-06
1.66323e-06
1.66631e-06
1.66842e-06
1.66873e-06
1.66662e-06
1.66321e-06
1.66324e-06
1.66324e-06
1.66324e-06
1.66323e-06
1.66321e-06
1.66608e-06
1.66818e-06
1.66846e-06
1.66662e-06
1.66321e-06
1.66324e-06
1.66324e-06
1.66324e-06
1.66323e-06
1.66321e-06
1.66604e-06
1.66703e-06
1.66665e-06
1.66324e-06
1.66324e-06
1.66324e-06
1.66324e-06
1.66324e-06
1.66323e-06
1.66615e-06
1.66827e-06
1.66818e-06
1.66598e-06
1.66323e-06
1.66321e-06
1.66321e-06
1.66324e-06
1.66548e-06
1.66659e-06
1.66848e-06
1.66838e-06
1.66685e-06
1.66631e-06
1.66608e-06
1.66604e-06
1.66616e-06
1.6666e-06
1.66835e-06
1.66842e-06
1.66819e-06
1.66704e-06
1.66827e-06
1.66848e-06
1.65109e-06
1.65083e-06
1.65069e-06
1.64901e-06
1.64893e-06
1.64894e-06
1.64896e-06
1.65054e-06
1.65074e-06
1.65069e-06
1.64865e-06
1.64551e-06
1.64551e-06
1.64551e-06
1.64551e-06
1.64839e-06
1.6492e-06
1.64901e-06
1.64551e-06
1.64551e-06
1.64551e-06
1.64551e-06
1.64551e-06
1.6455e-06
1.64875e-06
1.65078e-06
1.65108e-06
1.64893e-06
1.64551e-06
1.64551e-06
1.64551e-06
1.64551e-06
1.64551e-06
1.64551e-06
1.64849e-06
1.65054e-06
1.65083e-06
1.64894e-06
1.64551e-06
1.64551e-06
1.64551e-06
1.64551e-06
1.64551e-06
1.64551e-06
1.64844e-06
1.64937e-06
1.64896e-06
1.64551e-06
1.64551e-06
1.64551e-06
1.64551e-06
1.64551e-06
1.64551e-06
1.64858e-06
1.65063e-06
1.65054e-06
1.64839e-06
1.6455e-06
1.64551e-06
1.64551e-06
1.6455e-06
1.64797e-06
1.649e-06
1.65084e-06
1.65074e-06
1.6492e-06
1.64875e-06
1.64849e-06
1.64843e-06
1.64858e-06
1.64901e-06
1.65072e-06
1.65077e-06
1.65053e-06
1.64937e-06
1.65063e-06
1.65084e-06
1.63335e-06
1.63307e-06
1.633e-06
1.6313e-06
1.63121e-06
1.63124e-06
1.63125e-06
1.63285e-06
1.63307e-06
1.63301e-06
1.63095e-06
1.62785e-06
1.62785e-06
1.62785e-06
1.62785e-06
1.63079e-06
1.63152e-06
1.6313e-06
1.62785e-06
1.62785e-06
1.62785e-06
1.62785e-06
1.62785e-06
1.62785e-06
1.63115e-06
1.63306e-06
1.63335e-06
1.63122e-06
1.62785e-06
1.62785e-06
1.62785e-06
1.62785e-06
1.62785e-06
1.62785e-06
1.63088e-06
1.63281e-06
1.63308e-06
1.63124e-06
1.62785e-06
1.62785e-06
1.62785e-06
1.62785e-06
1.62785e-06
1.62785e-06
1.63081e-06
1.63165e-06
1.63126e-06
1.62785e-06
1.62785e-06
1.62785e-06
1.62785e-06
1.62785e-06
1.62785e-06
1.63097e-06
1.63291e-06
1.63285e-06
1.63079e-06
1.62785e-06
1.62785e-06
1.62785e-06
1.62785e-06
1.63045e-06
1.63137e-06
1.63313e-06
1.63307e-06
1.63152e-06
1.63115e-06
1.63088e-06
1.63081e-06
1.63098e-06
1.63139e-06
1.63305e-06
1.63306e-06
1.63281e-06
1.63165e-06
1.6329e-06
1.63313e-06
1.61565e-06
1.61537e-06
1.61531e-06
1.6136e-06
1.61352e-06
1.61355e-06
1.61356e-06
1.61515e-06
1.61537e-06
1.61531e-06
1.61325e-06
1.61017e-06
1.61017e-06
1.61017e-06
1.61018e-06
1.61313e-06
1.61383e-06
1.6136e-06
1.61017e-06
1.61017e-06
1.61017e-06
1.61017e-06
1.61017e-06
1.61017e-06
1.61349e-06
1.61537e-06
1.61565e-06
1.61352e-06
1.61017e-06
1.61017e-06
1.61017e-06
1.61017e-06
1.61017e-06
1.61017e-06
1.61322e-06
1.61512e-06
1.61537e-06
1.61355e-06
1.61018e-06
1.61017e-06
1.61017e-06
1.61017e-06
1.61017e-06
1.61017e-06
1.61316e-06
1.61396e-06
1.61358e-06
1.61018e-06
1.61017e-06
1.61017e-06
1.61017e-06
1.61017e-06
1.61017e-06
1.61332e-06
1.61521e-06
1.61516e-06
1.61313e-06
1.61017e-06
1.61017e-06
1.61017e-06
1.61017e-06
1.61283e-06
1.6137e-06
1.61544e-06
1.61537e-06
1.61383e-06
1.61349e-06
1.61322e-06
1.61316e-06
1.61332e-06
1.61371e-06
1.61535e-06
1.61537e-06
1.61512e-06
1.61396e-06
1.61521e-06
1.61544e-06
1.59797e-06
1.59769e-06
1.59763e-06
1.59592e-06
1.59585e-06
1.59587e-06
1.59588e-06
1.59747e-06
1.59769e-06
1.59763e-06
1.59557e-06
1.5925e-06
1.5925e-06
1.5925e-06
1.5925e-06
1.59545e-06
1.59615e-06
1.59592e-06
1.5925e-06
1.5925e-06
1.5925e-06
1.5925e-06
1.5925e-06
1.5925e-06
1.59582e-06
1.59769e-06
1.59795e-06
1.59584e-06
1.5925e-06
1.5925e-06
1.5925e-06
1.5925e-06
1.5925e-06
1.5925e-06
1.59555e-06
1.59744e-06
1.59769e-06
1.59587e-06
1.5925e-06
1.5925e-06
1.5925e-06
1.5925e-06
1.5925e-06
1.5925e-06
1.59549e-06
1.59628e-06
1.59591e-06
1.5925e-06
1.5925e-06
1.5925e-06
1.5925e-06
1.5925e-06
1.5925e-06
1.59565e-06
1.59753e-06
1.59748e-06
1.59546e-06
1.5925e-06
1.5925e-06
1.5925e-06
1.5925e-06
1.59517e-06
1.59602e-06
1.59776e-06
1.59769e-06
1.59615e-06
1.59582e-06
1.59555e-06
1.59549e-06
1.59565e-06
1.59604e-06
1.59767e-06
1.59769e-06
1.59744e-06
1.59628e-06
1.59753e-06
1.59776e-06
1.5803e-06
1.58002e-06
1.57996e-06
1.57824e-06
1.57817e-06
1.57819e-06
1.57821e-06
1.5798e-06
1.58002e-06
1.57996e-06
1.5779e-06
1.57482e-06
1.57482e-06
1.57482e-06
1.57482e-06
1.57778e-06
1.57847e-06
1.57825e-06
1.57483e-06
1.57482e-06
1.57482e-06
1.57482e-06
1.57482e-06
1.57482e-06
1.57814e-06
1.58002e-06
1.5803e-06
1.57817e-06
1.57483e-06
1.57482e-06
1.57482e-06
1.57482e-06
1.57482e-06
1.57482e-06
1.57788e-06
1.57977e-06
1.58003e-06
1.57819e-06
1.57483e-06
1.57482e-06
1.57482e-06
1.57482e-06
1.57482e-06
1.57482e-06
1.57781e-06
1.5786e-06
1.57821e-06
1.57482e-06
1.57482e-06
1.57482e-06
1.57482e-06
1.57482e-06
1.57483e-06
1.57798e-06
1.57986e-06
1.5798e-06
1.57779e-06
1.57482e-06
1.57482e-06
1.57482e-06
1.57482e-06
1.5775e-06
1.57835e-06
1.58009e-06
1.58002e-06
1.57847e-06
1.57814e-06
1.57788e-06
1.57781e-06
1.57798e-06
1.57837e-06
1.58e-06
1.58002e-06
1.57976e-06
1.5786e-06
1.57986e-06
1.58008e-06
1.56262e-06
1.56234e-06
1.56229e-06
1.56057e-06
1.56049e-06
1.56052e-06
1.56053e-06
1.56212e-06
1.56234e-06
1.56228e-06
1.56022e-06
1.55715e-06
1.55715e-06
1.55715e-06
1.55715e-06
1.56011e-06
1.56079e-06
1.56057e-06
1.55715e-06
1.55715e-06
1.55715e-06
1.55715e-06
1.55715e-06
1.55715e-06
1.56047e-06
1.56234e-06
1.56262e-06
1.56049e-06
1.55715e-06
1.55715e-06
1.55715e-06
1.55715e-06
1.55715e-06
1.55715e-06
1.5602e-06
1.56209e-06
1.56234e-06
1.56052e-06
1.55715e-06
1.55715e-06
1.55715e-06
1.55715e-06
1.55715e-06
1.55715e-06
1.56014e-06
1.56093e-06
1.56053e-06
1.55715e-06
1.55715e-06
1.55715e-06
1.55715e-06
1.55715e-06
1.55715e-06
1.5603e-06
1.56218e-06
1.56212e-06
1.5601e-06
1.55715e-06
1.55715e-06
1.55715e-06
1.55715e-06
1.55983e-06
1.56067e-06
1.56241e-06
1.56234e-06
1.5608e-06
1.56047e-06
1.5602e-06
1.56014e-06
1.5603e-06
1.56069e-06
1.56232e-06
1.56234e-06
1.56209e-06
1.56093e-06
1.56218e-06
1.56241e-06
1.54495e-06
1.54466e-06
1.54461e-06
1.54289e-06
1.54282e-06
1.54284e-06
1.54286e-06
1.54445e-06
1.54467e-06
1.54461e-06
1.54254e-06
1.53948e-06
1.53948e-06
1.53947e-06
1.53947e-06
1.54243e-06
1.54312e-06
1.54289e-06
1.53948e-06
1.53948e-06
1.53948e-06
1.53947e-06
1.53947e-06
1.53947e-06
1.5428e-06
1.54467e-06
1.54497e-06
1.54282e-06
1.53948e-06
1.53948e-06
1.53947e-06
1.53947e-06
1.53947e-06
1.53947e-06
1.54253e-06
1.54442e-06
1.54465e-06
1.54284e-06
1.53947e-06
1.53947e-06
1.53947e-06
1.53947e-06
1.53947e-06
1.53947e-06
1.54246e-06
1.54325e-06
1.54285e-06
1.53947e-06
1.53947e-06
1.53947e-06
1.53947e-06
1.53947e-06
1.53947e-06
1.54263e-06
1.54451e-06
1.54444e-06
1.54243e-06
1.53947e-06
1.53947e-06
1.53947e-06
1.53947e-06
1.54216e-06
1.54299e-06
1.54473e-06
1.54466e-06
1.54312e-06
1.54279e-06
1.54253e-06
1.54246e-06
1.54263e-06
1.54302e-06
1.54465e-06
1.54467e-06
1.54442e-06
1.54325e-06
1.54451e-06
1.54473e-06
1.52727e-06
1.52699e-06
1.52693e-06
1.52522e-06
1.52514e-06
1.52517e-06
1.52518e-06
1.52677e-06
1.52699e-06
1.52693e-06
1.52487e-06
1.5218e-06
1.5218e-06
1.5218e-06
1.5218e-06
1.52476e-06
1.52544e-06
1.52522e-06
1.5218e-06
1.5218e-06
1.5218e-06
1.5218e-06
1.5218e-06
1.5218e-06
1.52512e-06
1.52699e-06
1.52727e-06
1.52514e-06
1.5218e-06
1.5218e-06
1.5218e-06
1.5218e-06
1.5218e-06
1.5218e-06
1.52485e-06
1.52674e-06
1.527e-06
1.52516e-06
1.5218e-06
1.5218e-06
1.5218e-06
1.5218e-06
1.5218e-06
1.5218e-06
1.52479e-06
1.52558e-06
1.52518e-06
1.5218e-06
1.5218e-06
1.5218e-06
1.5218e-06
1.5218e-06
1.5218e-06
1.52495e-06
1.52683e-06
1.52677e-06
1.52475e-06
1.5218e-06
1.5218e-06
1.5218e-06
1.5218e-06
1.52448e-06
1.52532e-06
1.52706e-06
1.52699e-06
1.52545e-06
1.52512e-06
1.52485e-06
1.52479e-06
1.52495e-06
1.52534e-06
1.52697e-06
1.52699e-06
1.52674e-06
1.52558e-06
1.52683e-06
1.52706e-06
1.50959e-06
1.50931e-06
1.50925e-06
1.50754e-06
1.50747e-06
1.50749e-06
1.50751e-06
1.50909e-06
1.50931e-06
1.50926e-06
1.50719e-06
1.50412e-06
1.50412e-06
1.50412e-06
1.50412e-06
1.50708e-06
1.50777e-06
1.50754e-06
1.50412e-06
1.50412e-06
1.50412e-06
1.50412e-06
1.50412e-06
1.50412e-06
1.50744e-06
1.50931e-06
1.50959e-06
1.50747e-06
1.50412e-06
1.50412e-06
1.50412e-06
1.50412e-06
1.50412e-06
1.50412e-06
1.50717e-06
1.50906e-06
1.50931e-06
1.50749e-06
1.50412e-06
1.50412e-06
1.50412e-06
1.50412e-06
1.50412e-06
1.50412e-06
1.50711e-06
1.5079e-06
1.50751e-06
1.50412e-06
1.50412e-06
1.50412e-06
1.50412e-06
1.50412e-06
1.50412e-06
1.50727e-06
1.50915e-06
1.50909e-06
1.50708e-06
1.50412e-06
1.50412e-06
1.50412e-06
1.50412e-06
1.5068e-06
1.50764e-06
1.50938e-06
1.50931e-06
1.50777e-06
1.50744e-06
1.50718e-06
1.50711e-06
1.50728e-06
1.50767e-06
1.50929e-06
1.50931e-06
1.50906e-06
1.5079e-06
1.50915e-06
1.50938e-06
1.49191e-06
1.49163e-06
1.49158e-06
1.48986e-06
1.48979e-06
1.48981e-06
1.48983e-06
1.49142e-06
1.49163e-06
1.49158e-06
1.48951e-06
1.48644e-06
1.48644e-06
1.48644e-06
1.48644e-06
1.4894e-06
1.49009e-06
1.48986e-06
1.48644e-06
1.48644e-06
1.48644e-06
1.48644e-06
1.48644e-06
1.48644e-06
1.48976e-06
1.49163e-06
1.49192e-06
1.48979e-06
1.48644e-06
1.48644e-06
1.48644e-06
1.48644e-06
1.48644e-06
1.48644e-06
1.4895e-06
1.49139e-06
1.49166e-06
1.48981e-06
1.48644e-06
1.48644e-06
1.48644e-06
1.48644e-06
1.48644e-06
1.48644e-06
1.48943e-06
1.49022e-06
1.48983e-06
1.48644e-06
1.48644e-06
1.48644e-06
1.48644e-06
1.48644e-06
1.48644e-06
1.48959e-06
1.49148e-06
1.49142e-06
1.4894e-06
1.48644e-06
1.48644e-06
1.48644e-06
1.48644e-06
1.48913e-06
1.48996e-06
1.4917e-06
1.49164e-06
1.49009e-06
1.48976e-06
1.4895e-06
1.48943e-06
1.4896e-06
1.48999e-06
1.49161e-06
1.49164e-06
1.49138e-06
1.49022e-06
1.49148e-06
1.4917e-06
1.47423e-06
1.47395e-06
1.4739e-06
1.47218e-06
1.47211e-06
1.47213e-06
1.47215e-06
1.47374e-06
1.47395e-06
1.4739e-06
1.47183e-06
1.46876e-06
1.46876e-06
1.46876e-06
1.46876e-06
1.47172e-06
1.47241e-06
1.47218e-06
1.46876e-06
1.46876e-06
1.46876e-06
1.46876e-06
1.46876e-06
1.46876e-06
1.47208e-06
1.47395e-06
1.47421e-06
1.4721e-06
1.46876e-06
1.46876e-06
1.46876e-06
1.46876e-06
1.46876e-06
1.46876e-06
1.47182e-06
1.4737e-06
1.47394e-06
1.47213e-06
1.46876e-06
1.46876e-06
1.46876e-06
1.46876e-06
1.46876e-06
1.46876e-06
1.47175e-06
1.47254e-06
1.47217e-06
1.46876e-06
1.46876e-06
1.46876e-06
1.46876e-06
1.46876e-06
1.46876e-06
1.47191e-06
1.4738e-06
1.47374e-06
1.47172e-06
1.46876e-06
1.46876e-06
1.46876e-06
1.46876e-06
1.47145e-06
1.47228e-06
1.47402e-06
1.47396e-06
1.47241e-06
1.47208e-06
1.47182e-06
1.47175e-06
1.47192e-06
1.47231e-06
1.47393e-06
1.47395e-06
1.4737e-06
1.47254e-06
1.4738e-06
1.47402e-06
1.45655e-06
1.45627e-06
1.45622e-06
1.4545e-06
1.45443e-06
1.45445e-06
1.45447e-06
1.45606e-06
1.45627e-06
1.45622e-06
1.45415e-06
1.45108e-06
1.45108e-06
1.45108e-06
1.45108e-06
1.45404e-06
1.45473e-06
1.4545e-06
1.45108e-06
1.45108e-06
1.45108e-06
1.45108e-06
1.45108e-06
1.45108e-06
1.4544e-06
1.45627e-06
1.45654e-06
1.45442e-06
1.45108e-06
1.45108e-06
1.45108e-06
1.45108e-06
1.45108e-06
1.45108e-06
1.45414e-06
1.45603e-06
1.45627e-06
1.45445e-06
1.45108e-06
1.45108e-06
1.45108e-06
1.45108e-06
1.45108e-06
1.45108e-06
1.45407e-06
1.45486e-06
1.45449e-06
1.45108e-06
1.45108e-06
1.45108e-06
1.45108e-06
1.45108e-06
1.45108e-06
1.45424e-06
1.45612e-06
1.45606e-06
1.45404e-06
1.45108e-06
1.45108e-06
1.45108e-06
1.45108e-06
1.45377e-06
1.4546e-06
1.45634e-06
1.45627e-06
1.45473e-06
1.4544e-06
1.45414e-06
1.45407e-06
1.45424e-06
1.45463e-06
1.45626e-06
1.45628e-06
1.45603e-06
1.45486e-06
1.45612e-06
1.45634e-06
1.43888e-06
1.4386e-06
1.43854e-06
1.43682e-06
1.43675e-06
1.43677e-06
1.43679e-06
1.43838e-06
1.4386e-06
1.43854e-06
1.43647e-06
1.43341e-06
1.43341e-06
1.43341e-06
1.43341e-06
1.43636e-06
1.43705e-06
1.43683e-06
1.43341e-06
1.43341e-06
1.43341e-06
1.43341e-06
1.43341e-06
1.43341e-06
1.43673e-06
1.4386e-06
1.43887e-06
1.43675e-06
1.43341e-06
1.43341e-06
1.43341e-06
1.43341e-06
1.43341e-06
1.43341e-06
1.43646e-06
1.43835e-06
1.43859e-06
1.43677e-06
1.43341e-06
1.43341e-06
1.43341e-06
1.43341e-06
1.43341e-06
1.43341e-06
1.43639e-06
1.43718e-06
1.43679e-06
1.43341e-06
1.43341e-06
1.43341e-06
1.43341e-06
1.43341e-06
1.43341e-06
1.43656e-06
1.43844e-06
1.43838e-06
1.43636e-06
1.43341e-06
1.43341e-06
1.43341e-06
1.43341e-06
1.43609e-06
1.43693e-06
1.43866e-06
1.43859e-06
1.43705e-06
1.43672e-06
1.43646e-06
1.43639e-06
1.43656e-06
1.43695e-06
1.43858e-06
1.4386e-06
1.43834e-06
1.43718e-06
1.43844e-06
1.43866e-06
1.4212e-06
1.42092e-06
1.42086e-06
1.41915e-06
1.41907e-06
1.4191e-06
1.41911e-06
1.4207e-06
1.42092e-06
1.42086e-06
1.4188e-06
1.41573e-06
1.41573e-06
1.41573e-06
1.41573e-06
1.41869e-06
1.41937e-06
1.41915e-06
1.41573e-06
1.41573e-06
1.41573e-06
1.41573e-06
1.41573e-06
1.41573e-06
1.41905e-06
1.42092e-06
1.4212e-06
1.41907e-06
1.41573e-06
1.41573e-06
1.41573e-06
1.41573e-06
1.41573e-06
1.41573e-06
1.41878e-06
1.42067e-06
1.42093e-06
1.41909e-06
1.41573e-06
1.41573e-06
1.41573e-06
1.41573e-06
1.41573e-06
1.41573e-06
1.41872e-06
1.41951e-06
1.41911e-06
1.41573e-06
1.41573e-06
1.41573e-06
1.41573e-06
1.41573e-06
1.41573e-06
1.41888e-06
1.42076e-06
1.4207e-06
1.41868e-06
1.41573e-06
1.41573e-06
1.41573e-06
1.41573e-06
1.41841e-06
1.41925e-06
1.42099e-06
1.42092e-06
1.41938e-06
1.41905e-06
1.41878e-06
1.41872e-06
1.41889e-06
1.41927e-06
1.4209e-06
1.42092e-06
1.42067e-06
1.41951e-06
1.42076e-06
1.42099e-06
1.40352e-06
1.40324e-06
1.40319e-06
1.40147e-06
1.4014e-06
1.40142e-06
1.40144e-06
1.40303e-06
1.40324e-06
1.40319e-06
1.40112e-06
1.39805e-06
1.39805e-06
1.39805e-06
1.39805e-06
1.40101e-06
1.4017e-06
1.40147e-06
1.39805e-06
1.39805e-06
1.39805e-06
1.39805e-06
1.39805e-06
1.39805e-06
1.40137e-06
1.40324e-06
1.40353e-06
1.4014e-06
1.39805e-06
1.39805e-06
1.39805e-06
1.39805e-06
1.39805e-06
1.39805e-06
1.40111e-06
1.403e-06
1.40324e-06
1.40142e-06
1.39805e-06
1.39805e-06
1.39805e-06
1.39805e-06
1.39805e-06
1.39805e-06
1.40104e-06
1.40183e-06
1.40144e-06
1.39805e-06
1.39805e-06
1.39805e-06
1.39805e-06
1.39805e-06
1.39805e-06
1.40121e-06
1.40309e-06
1.40303e-06
1.40101e-06
1.39805e-06
1.39805e-06
1.39805e-06
1.39806e-06
1.40074e-06
1.40157e-06
1.40331e-06
1.40324e-06
1.4017e-06
1.40137e-06
1.4011e-06
1.40104e-06
1.40122e-06
1.4016e-06
1.40323e-06
1.40324e-06
1.40299e-06
1.40183e-06
1.4031e-06
1.40332e-06
1.38585e-06
1.38557e-06
1.38551e-06
1.38379e-06
1.38372e-06
1.38374e-06
1.38376e-06
1.38535e-06
1.38557e-06
1.38551e-06
1.38344e-06
1.38037e-06
1.38037e-06
1.38037e-06
1.38037e-06
1.38333e-06
1.38402e-06
1.38379e-06
1.38037e-06
1.38037e-06
1.38037e-06
1.38037e-06
1.38037e-06
1.38037e-06
1.38369e-06
1.38557e-06
1.38584e-06
1.38372e-06
1.38037e-06
1.38037e-06
1.38037e-06
1.38037e-06
1.38037e-06
1.38037e-06
1.38343e-06
1.38532e-06
1.38557e-06
1.38374e-06
1.38037e-06
1.38037e-06
1.38037e-06
1.38037e-06
1.38037e-06
1.38037e-06
1.38336e-06
1.38415e-06
1.38376e-06
1.38037e-06
1.38037e-06
1.38037e-06
1.38037e-06
1.38037e-06
1.38037e-06
1.38353e-06
1.38541e-06
1.38535e-06
1.38333e-06
1.38037e-06
1.38037e-06
1.38037e-06
1.38037e-06
1.38306e-06
1.3839e-06
1.38564e-06
1.38557e-06
1.38402e-06
1.3837e-06
1.38343e-06
1.38336e-06
1.38354e-06
1.38392e-06
1.38555e-06
1.38556e-06
1.38531e-06
1.38415e-06
1.38542e-06
1.38564e-06
1.36817e-06
1.36789e-06
1.36783e-06
1.36611e-06
1.36604e-06
1.36606e-06
1.36608e-06
1.36767e-06
1.36789e-06
1.36783e-06
1.36577e-06
1.3627e-06
1.3627e-06
1.3627e-06
1.3627e-06
1.36566e-06
1.36634e-06
1.36612e-06
1.3627e-06
1.3627e-06
1.3627e-06
1.3627e-06
1.3627e-06
1.3627e-06
1.36602e-06
1.36789e-06
1.36817e-06
1.36604e-06
1.3627e-06
1.3627e-06
1.3627e-06
1.3627e-06
1.3627e-06
1.3627e-06
1.36575e-06
1.36764e-06
1.3679e-06
1.36606e-06
1.3627e-06
1.3627e-06
1.3627e-06
1.3627e-06
1.3627e-06
1.3627e-06
1.36568e-06
1.36648e-06
1.36608e-06
1.3627e-06
1.3627e-06
1.3627e-06
1.3627e-06
1.3627e-06
1.3627e-06
1.36585e-06
1.36773e-06
1.36767e-06
1.36565e-06
1.3627e-06
1.3627e-06
1.3627e-06
1.36269e-06
1.36538e-06
1.36622e-06
1.36796e-06
1.36789e-06
1.36634e-06
1.36602e-06
1.36575e-06
1.36568e-06
1.36585e-06
1.36624e-06
1.36787e-06
1.36789e-06
1.36764e-06
1.36648e-06
1.36773e-06
1.36795e-06
1.35049e-06
1.35021e-06
1.35015e-06
1.34844e-06
1.34836e-06
1.34839e-06
1.3484e-06
1.34999e-06
1.35021e-06
1.35015e-06
1.34809e-06
1.34502e-06
1.34502e-06
1.34502e-06
1.34502e-06
1.34798e-06
1.34866e-06
1.34844e-06
1.34502e-06
1.34502e-06
1.34502e-06
1.34502e-06
1.34502e-06
1.34502e-06
1.34834e-06
1.35021e-06
1.35049e-06
1.34836e-06
1.34502e-06
1.34502e-06
1.34502e-06
1.34502e-06
1.34502e-06
1.34502e-06
1.34807e-06
1.34996e-06
1.35023e-06
1.34838e-06
1.34502e-06
1.34502e-06
1.34502e-06
1.34502e-06
1.34502e-06
1.34502e-06
1.34801e-06
1.3488e-06
1.3484e-06
1.34502e-06
1.34502e-06
1.34502e-06
1.34502e-06
1.34502e-06
1.34502e-06
1.34817e-06
1.35005e-06
1.34999e-06
1.34797e-06
1.34502e-06
1.34502e-06
1.34502e-06
1.34502e-06
1.3477e-06
1.34854e-06
1.35028e-06
1.35021e-06
1.34867e-06
1.34834e-06
1.34808e-06
1.34801e-06
1.34817e-06
1.34856e-06
1.35019e-06
1.35022e-06
1.34997e-06
1.3488e-06
1.35005e-06
1.35028e-06
1.33281e-06
1.33253e-06
1.33248e-06
1.33076e-06
1.33069e-06
1.33071e-06
1.33073e-06
1.33232e-06
1.33253e-06
1.33248e-06
1.33041e-06
1.32734e-06
1.32734e-06
1.32734e-06
1.32734e-06
1.3303e-06
1.33099e-06
1.33076e-06
1.32734e-06
1.32734e-06
1.32734e-06
1.32734e-06
1.32734e-06
1.32734e-06
1.33066e-06
1.33253e-06
1.33281e-06
1.33069e-06
1.32734e-06
1.32734e-06
1.32734e-06
1.32734e-06
1.32734e-06
1.32734e-06
1.3304e-06
1.33229e-06
1.33253e-06
1.33071e-06
1.32734e-06
1.32734e-06
1.32734e-06
1.32734e-06
1.32734e-06
1.32734e-06
1.33033e-06
1.33112e-06
1.33073e-06
1.32734e-06
1.32734e-06
1.32734e-06
1.32734e-06
1.32734e-06
1.32734e-06
1.3305e-06
1.33238e-06
1.33231e-06
1.3303e-06
1.32734e-06
1.32734e-06
1.32734e-06
1.32735e-06
1.33003e-06
1.33087e-06
1.3326e-06
1.33253e-06
1.33099e-06
1.33066e-06
1.33039e-06
1.33033e-06
1.3305e-06
1.33089e-06
1.33252e-06
1.33253e-06
1.33228e-06
1.33112e-06
1.33238e-06
1.33261e-06
1.31514e-06
1.31486e-06
1.3148e-06
1.31309e-06
1.31302e-06
1.31304e-06
1.31305e-06
1.31464e-06
1.31486e-06
1.3148e-06
1.31274e-06
1.30967e-06
1.30967e-06
1.30967e-06
1.30967e-06
1.31263e-06
1.31331e-06
1.31309e-06
1.30967e-06
1.30967e-06
1.30967e-06
1.30967e-06
1.30967e-06
1.30967e-06
1.31299e-06
1.31486e-06
1.31514e-06
1.31301e-06
1.30967e-06
1.30967e-06
1.30967e-06
1.30967e-06
1.30967e-06
1.30967e-06
1.31272e-06
1.31461e-06
1.31486e-06
1.31304e-06
1.30967e-06
1.30967e-06
1.30967e-06
1.30967e-06
1.30967e-06
1.30967e-06
1.31266e-06
1.31345e-06
1.31305e-06
1.30967e-06
1.30967e-06
1.30967e-06
1.30967e-06
1.30967e-06
1.30967e-06
1.31282e-06
1.3147e-06
1.31464e-06
1.31262e-06
1.30967e-06
1.30967e-06
1.30967e-06
1.30967e-06
1.31235e-06
1.31319e-06
1.31493e-06
1.31486e-06
1.31331e-06
1.31299e-06
1.31272e-06
1.31266e-06
1.31283e-06
1.31321e-06
1.31484e-06
1.31486e-06
1.31461e-06
1.31345e-06
1.31471e-06
1.31493e-06
1.29747e-06
1.2972e-06
1.29713e-06
1.29541e-06
1.29534e-06
1.29536e-06
1.29538e-06
1.29697e-06
1.29719e-06
1.29713e-06
1.29506e-06
1.292e-06
1.292e-06
1.292e-06
1.292e-06
1.29495e-06
1.29564e-06
1.29541e-06
1.292e-06
1.292e-06
1.292e-06
1.292e-06
1.292e-06
1.292e-06
1.29532e-06
1.29719e-06
1.29747e-06
1.29534e-06
1.292e-06
1.292e-06
1.292e-06
1.292e-06
1.292e-06
1.292e-06
1.29505e-06
1.29694e-06
1.29719e-06
1.29536e-06
1.292e-06
1.292e-06
1.292e-06
1.292e-06
1.292e-06
1.292e-06
1.29498e-06
1.29577e-06
1.29538e-06
1.292e-06
1.292e-06
1.292e-06
1.292e-06
1.292e-06
1.292e-06
1.29515e-06
1.29703e-06
1.29697e-06
1.29495e-06
1.292e-06
1.292e-06
1.292e-06
1.29199e-06
1.29468e-06
1.29552e-06
1.29726e-06
1.29719e-06
1.29564e-06
1.29532e-06
1.29505e-06
1.29498e-06
1.29515e-06
1.29554e-06
1.29717e-06
1.29719e-06
1.29694e-06
1.29577e-06
1.29703e-06
1.29725e-06
1.27979e-06
1.27952e-06
1.27946e-06
1.27774e-06
1.27767e-06
1.27769e-06
1.27771e-06
1.27929e-06
1.27951e-06
1.27946e-06
1.27739e-06
1.27432e-06
1.27432e-06
1.27432e-06
1.27432e-06
1.27728e-06
1.27797e-06
1.27774e-06
1.27432e-06
1.27432e-06
1.27432e-06
1.27432e-06
1.27432e-06
1.27432e-06
1.27764e-06
1.27951e-06
1.27979e-06
1.27767e-06
1.27432e-06
1.27432e-06
1.27432e-06
1.27432e-06
1.27432e-06
1.27432e-06
1.27737e-06
1.27926e-06
1.27951e-06
1.27769e-06
1.27432e-06
1.27432e-06
1.27432e-06
1.27432e-06
1.27432e-06
1.27432e-06
1.27731e-06
1.2781e-06
1.27771e-06
1.27432e-06
1.27432e-06
1.27432e-06
1.27432e-06
1.27432e-06
1.27432e-06
1.27747e-06
1.27935e-06
1.27929e-06
1.27728e-06
1.27432e-06
1.27432e-06
1.27432e-06
1.27432e-06
1.277e-06
1.27784e-06
1.27958e-06
1.27951e-06
1.27797e-06
1.27764e-06
1.27738e-06
1.27731e-06
1.27747e-06
1.27786e-06
1.27949e-06
1.27952e-06
1.27927e-06
1.2781e-06
1.27934e-06
1.27958e-06
1.26212e-06
1.26184e-06
1.26178e-06
1.26007e-06
1.25999e-06
1.26001e-06
1.26003e-06
1.26162e-06
1.26184e-06
1.26178e-06
1.25972e-06
1.25665e-06
1.25665e-06
1.25665e-06
1.25665e-06
1.25961e-06
1.26029e-06
1.26007e-06
1.25665e-06
1.25665e-06
1.25665e-06
1.25665e-06
1.25665e-06
1.25665e-06
1.25997e-06
1.26184e-06
1.26212e-06
1.25999e-06
1.25665e-06
1.25665e-06
1.25665e-06
1.25665e-06
1.25665e-06
1.25665e-06
1.2597e-06
1.26159e-06
1.26184e-06
1.26002e-06
1.25665e-06
1.25665e-06
1.25665e-06
1.25665e-06
1.25665e-06
1.25665e-06
1.25964e-06
1.26043e-06
1.26003e-06
1.25665e-06
1.25665e-06
1.25665e-06
1.25665e-06
1.25665e-06
1.25665e-06
1.2598e-06
1.26168e-06
1.26162e-06
1.2596e-06
1.25665e-06
1.25665e-06
1.25665e-06
1.25665e-06
1.25933e-06
1.26017e-06
1.26191e-06
1.26184e-06
1.26029e-06
1.25997e-06
1.2597e-06
1.25964e-06
1.2598e-06
1.26019e-06
1.26182e-06
1.26184e-06
1.26159e-06
1.26042e-06
1.26168e-06
1.26191e-06
1.24445e-06
1.24416e-06
1.24411e-06
1.24239e-06
1.24232e-06
1.24234e-06
1.24236e-06
1.24395e-06
1.24416e-06
1.24411e-06
1.24204e-06
1.23897e-06
1.23897e-06
1.23897e-06
1.23897e-06
1.24193e-06
1.24262e-06
1.24239e-06
1.23897e-06
1.23897e-06
1.23897e-06
1.23897e-06
1.23897e-06
1.23897e-06
1.24229e-06
1.24416e-06
1.24444e-06
1.24232e-06
1.23897e-06
1.23897e-06
1.23897e-06
1.23897e-06
1.23897e-06
1.23897e-06
1.24203e-06
1.24392e-06
1.24416e-06
1.24234e-06
1.23897e-06
1.23897e-06
1.23897e-06
1.23897e-06
1.23897e-06
1.23897e-06
1.24196e-06
1.24275e-06
1.24236e-06
1.23897e-06
1.23897e-06
1.23897e-06
1.23897e-06
1.23897e-06
1.23897e-06
1.24213e-06
1.24401e-06
1.24395e-06
1.24193e-06
1.23897e-06
1.23897e-06
1.23897e-06
1.23897e-06
1.24165e-06
1.2425e-06
1.24423e-06
1.24416e-06
1.24262e-06
1.24229e-06
1.24203e-06
1.24196e-06
1.24213e-06
1.24252e-06
1.24415e-06
1.24417e-06
1.24392e-06
1.24275e-06
1.24401e-06
1.24423e-06
1.22677e-06
1.22649e-06
1.22643e-06
1.22471e-06
1.22464e-06
1.22467e-06
1.22468e-06
1.22627e-06
1.22649e-06
1.22643e-06
1.22437e-06
1.2213e-06
1.2213e-06
1.2213e-06
1.2213e-06
1.22426e-06
1.22494e-06
1.22472e-06
1.2213e-06
1.2213e-06
1.2213e-06
1.2213e-06
1.2213e-06
1.2213e-06
1.22462e-06
1.22649e-06
1.22677e-06
1.22464e-06
1.2213e-06
1.2213e-06
1.2213e-06
1.2213e-06
1.2213e-06
1.2213e-06
1.22435e-06
1.22624e-06
1.22651e-06
1.22467e-06
1.2213e-06
1.2213e-06
1.2213e-06
1.2213e-06
1.2213e-06
1.2213e-06
1.22429e-06
1.22508e-06
1.22468e-06
1.2213e-06
1.2213e-06
1.2213e-06
1.2213e-06
1.2213e-06
1.2213e-06
1.22445e-06
1.22633e-06
1.22627e-06
1.22425e-06
1.2213e-06
1.2213e-06
1.2213e-06
1.2213e-06
1.22398e-06
1.22482e-06
1.22656e-06
1.22649e-06
1.22495e-06
1.22462e-06
1.22435e-06
1.22429e-06
1.22445e-06
1.22484e-06
1.22647e-06
1.22649e-06
1.22624e-06
1.22508e-06
1.22633e-06
1.22656e-06
1.20909e-06
1.20881e-06
1.20876e-06
1.20704e-06
1.20697e-06
1.20699e-06
1.20701e-06
1.2086e-06
1.20881e-06
1.20876e-06
1.20669e-06
1.20363e-06
1.20362e-06
1.20362e-06
1.20362e-06
1.20658e-06
1.20727e-06
1.20704e-06
1.20363e-06
1.20363e-06
1.20362e-06
1.20362e-06
1.20362e-06
1.20362e-06
1.20694e-06
1.20881e-06
1.20912e-06
1.20697e-06
1.20362e-06
1.20362e-06
1.20362e-06
1.20362e-06
1.20362e-06
1.20362e-06
1.20668e-06
1.20857e-06
1.20879e-06
1.20699e-06
1.20362e-06
1.20362e-06
1.20362e-06
1.20362e-06
1.20362e-06
1.20362e-06
1.20661e-06
1.2074e-06
1.207e-06
1.20362e-06
1.20362e-06
1.20362e-06
1.20362e-06
1.20362e-06
1.20362e-06
1.20678e-06
1.20866e-06
1.20859e-06
1.20658e-06
1.20362e-06
1.20362e-06
1.20362e-06
1.20362e-06
1.20631e-06
1.20714e-06
1.20888e-06
1.20881e-06
1.20727e-06
1.20694e-06
1.20668e-06
1.20661e-06
1.20678e-06
1.20717e-06
1.20879e-06
1.20882e-06
1.20856e-06
1.2074e-06
1.20866e-06
1.20888e-06
1.19142e-06
1.19114e-06
1.19108e-06
1.18937e-06
1.18929e-06
1.18932e-06
1.18933e-06
1.19092e-06
1.19114e-06
1.19108e-06
1.18902e-06
1.18595e-06
1.18595e-06
1.18595e-06
1.18595e-06
1.18891e-06
1.18959e-06
1.18937e-06
1.18595e-06
1.18595e-06
1.18595e-06
1.18595e-06
1.18595e-06
1.18595e-06
1.18927e-06
1.19114e-06
1.19143e-06
1.18929e-06
1.18595e-06
1.18595e-06
1.18595e-06
1.18595e-06
1.18595e-06
1.18595e-06
1.189e-06
1.19089e-06
1.19113e-06
1.18931e-06
1.18595e-06
1.18595e-06
1.18595e-06
1.18595e-06
1.18595e-06
1.18595e-06
1.18894e-06
1.18973e-06
1.18933e-06
1.18595e-06
1.18595e-06
1.18595e-06
1.18595e-06
1.18595e-06
1.18595e-06
1.1891e-06
1.19098e-06
1.19092e-06
1.18891e-06
1.18595e-06
1.18595e-06
1.18595e-06
1.18595e-06
1.18863e-06
1.18947e-06
1.19121e-06
1.19114e-06
1.1896e-06
1.18927e-06
1.189e-06
1.18894e-06
1.18911e-06
1.18949e-06
1.19112e-06
1.19114e-06
1.19089e-06
1.18973e-06
1.19098e-06
1.19121e-06
1.17375e-06
1.17346e-06
1.17341e-06
1.17169e-06
1.17162e-06
1.17164e-06
1.17166e-06
1.17325e-06
1.17346e-06
1.17341e-06
1.17134e-06
1.16827e-06
1.16827e-06
1.16827e-06
1.16827e-06
1.17123e-06
1.17192e-06
1.17169e-06
1.16827e-06
1.16827e-06
1.16827e-06
1.16827e-06
1.16827e-06
1.16827e-06
1.17159e-06
1.17346e-06
1.17374e-06
1.17162e-06
1.16827e-06
1.16827e-06
1.16827e-06
1.16827e-06
1.16827e-06
1.16827e-06
1.17133e-06
1.17322e-06
1.17346e-06
1.17164e-06
1.16827e-06
1.16827e-06
1.16827e-06
1.16827e-06
1.16827e-06
1.16827e-06
1.17126e-06
1.17205e-06
1.17165e-06
1.16827e-06
1.16827e-06
1.16827e-06
1.16827e-06
1.16827e-06
1.16827e-06
1.17143e-06
1.17331e-06
1.17325e-06
1.17123e-06
1.16827e-06
1.16827e-06
1.16827e-06
1.16827e-06
1.17096e-06
1.17179e-06
1.17353e-06
1.17347e-06
1.17192e-06
1.1716e-06
1.17133e-06
1.17126e-06
1.17143e-06
1.17182e-06
1.17345e-06
1.17347e-06
1.17322e-06
1.17205e-06
1.17331e-06
1.17353e-06
1.15607e-06
1.15579e-06
1.15573e-06
1.15402e-06
1.15394e-06
1.15397e-06
1.15398e-06
1.15557e-06
1.15579e-06
1.15573e-06
1.15367e-06
1.1506e-06
1.1506e-06
1.1506e-06
1.1506e-06
1.15356e-06
1.15424e-06
1.15402e-06
1.1506e-06
1.1506e-06
1.1506e-06
1.1506e-06
1.1506e-06
1.1506e-06
1.15392e-06
1.15579e-06
1.15607e-06
1.15394e-06
1.1506e-06
1.1506e-06
1.1506e-06
1.1506e-06
1.1506e-06
1.1506e-06
1.15365e-06
1.15554e-06
1.15579e-06
1.15397e-06
1.1506e-06
1.1506e-06
1.1506e-06
1.1506e-06
1.1506e-06
1.1506e-06
1.15359e-06
1.15438e-06
1.15398e-06
1.1506e-06
1.1506e-06
1.1506e-06
1.1506e-06
1.1506e-06
1.1506e-06
1.15375e-06
1.15563e-06
1.15557e-06
1.15356e-06
1.1506e-06
1.1506e-06
1.1506e-06
1.1506e-06
1.15328e-06
1.15412e-06
1.15586e-06
1.15579e-06
1.15425e-06
1.15392e-06
1.15365e-06
1.15359e-06
1.15376e-06
1.15414e-06
1.15577e-06
1.15579e-06
1.15554e-06