/*--------------------------------*- C++ -*----------------------------------*\
| =========                 |                                                 |
| \\      /  F ield         | OpenFOAM: The Open Source CFD Toolbox           |
|  \\    /   O peration     | Version:  v2012                                 |
|   \\  /    A nd           | Website:  www.openfoam.com                      |
|    \\/     M anipulation  |                                                 |
\*---------------------------------------------------------------------------*/
FoamFile
{
    version     2.0;
    format      ascii;
    class       volScalarField;
    location    "19.5";
    object      p;
}
// * * * * * * * * * * * * * * * * * * * * * * * * * * * * * * * * * * * * * //

dimensions      [0 2 -2 0 0 0 0];


internalField   nonuniform List<scalar> 
244288
(
1.40723e-06
1.40729e-06
1.40726e-06
1.40719e-06
1.40715e-06
1.4072e-06
1.40727e-06
1.40729e-06
1.40731e-06
1.4071e-06
1.40687e-06
1.40678e-06
1.40689e-06
1.40714e-06
1.40732e-06
1.40726e-06
1.4071e-06
1.40672e-06
1.4064e-06
1.40629e-06
1.40643e-06
1.40677e-06
1.40714e-06
1.40725e-06
1.40719e-06
1.40687e-06
1.4064e-06
1.40603e-06
1.40591e-06
1.40607e-06
1.40645e-06
1.40693e-06
1.40721e-06
1.40723e-06
1.40715e-06
1.40678e-06
1.40629e-06
1.40591e-06
1.40579e-06
1.40595e-06
1.40635e-06
1.40684e-06
1.40717e-06
1.4072e-06
1.40689e-06
1.40643e-06
1.40607e-06
1.40595e-06
1.4061e-06
1.40648e-06
1.40695e-06
1.40722e-06
1.40727e-06
1.40714e-06
1.40677e-06
1.40645e-06
1.40635e-06
1.40648e-06
1.40681e-06
1.40717e-06
1.40725e-06
1.40732e-06
1.40714e-06
1.40693e-06
1.40684e-06
1.40695e-06
1.40717e-06
1.40733e-06
1.40725e-06
1.40721e-06
1.40717e-06
1.40722e-06
1.40725e-06
1.38659e-06
1.38629e-06
1.38614e-06
1.38478e-06
1.38468e-06
1.38467e-06
1.38471e-06
1.38609e-06
1.3862e-06
1.38614e-06
1.38429e-06
1.38204e-06
1.38205e-06
1.38205e-06
1.38204e-06
1.38441e-06
1.38492e-06
1.38479e-06
1.38205e-06
1.38201e-06
1.38205e-06
1.38205e-06
1.38201e-06
1.38204e-06
1.38488e-06
1.38635e-06
1.38659e-06
1.38468e-06
1.38205e-06
1.38205e-06
1.3821e-06
1.3821e-06
1.38205e-06
1.38205e-06
1.38484e-06
1.38612e-06
1.38629e-06
1.38467e-06
1.38205e-06
1.38205e-06
1.3821e-06
1.3821e-06
1.38205e-06
1.38205e-06
1.38481e-06
1.38504e-06
1.38471e-06
1.38204e-06
1.38201e-06
1.38205e-06
1.38205e-06
1.38201e-06
1.38204e-06
1.38486e-06
1.38627e-06
1.38609e-06
1.38441e-06
1.38204e-06
1.38205e-06
1.38205e-06
1.38204e-06
1.38448e-06
1.38493e-06
1.38636e-06
1.3862e-06
1.38492e-06
1.38488e-06
1.38484e-06
1.38481e-06
1.38486e-06
1.38493e-06
1.3861e-06
1.38635e-06
1.38613e-06
1.38504e-06
1.38627e-06
1.38636e-06
1.37179e-06
1.37168e-06
1.37157e-06
1.37013e-06
1.37005e-06
1.37001e-06
1.3701e-06
1.37151e-06
1.37168e-06
1.37157e-06
1.36967e-06
1.36728e-06
1.36728e-06
1.36728e-06
1.36728e-06
1.36977e-06
1.37035e-06
1.37014e-06
1.36728e-06
1.36726e-06
1.36726e-06
1.36726e-06
1.36726e-06
1.36728e-06
1.37027e-06
1.37177e-06
1.37179e-06
1.37005e-06
1.36728e-06
1.36726e-06
1.36727e-06
1.36727e-06
1.36726e-06
1.36728e-06
1.37023e-06
1.37154e-06
1.37167e-06
1.37001e-06
1.36728e-06
1.36726e-06
1.36727e-06
1.36727e-06
1.36726e-06
1.36728e-06
1.3702e-06
1.37045e-06
1.3701e-06
1.36728e-06
1.36726e-06
1.36726e-06
1.36726e-06
1.36726e-06
1.36728e-06
1.37026e-06
1.37172e-06
1.37151e-06
1.36977e-06
1.36728e-06
1.36728e-06
1.36728e-06
1.36728e-06
1.36987e-06
1.37033e-06
1.37179e-06
1.37168e-06
1.37035e-06
1.37027e-06
1.37023e-06
1.3702e-06
1.37026e-06
1.37033e-06
1.37159e-06
1.37177e-06
1.37154e-06
1.37045e-06
1.37172e-06
1.37179e-06
1.35705e-06
1.35694e-06
1.35683e-06
1.35539e-06
1.3553e-06
1.35526e-06
1.35536e-06
1.35677e-06
1.35694e-06
1.35683e-06
1.35492e-06
1.35251e-06
1.35251e-06
1.35251e-06
1.35251e-06
1.35501e-06
1.35561e-06
1.35539e-06
1.35251e-06
1.35251e-06
1.35251e-06
1.35251e-06
1.35251e-06
1.35251e-06
1.35553e-06
1.35703e-06
1.35705e-06
1.3553e-06
1.35251e-06
1.35251e-06
1.35251e-06
1.35251e-06
1.35251e-06
1.35251e-06
1.35549e-06
1.35681e-06
1.35694e-06
1.35526e-06
1.35251e-06
1.35251e-06
1.35251e-06
1.35251e-06
1.35251e-06
1.35251e-06
1.35546e-06
1.35571e-06
1.35536e-06
1.35251e-06
1.35251e-06
1.35251e-06
1.35251e-06
1.35251e-06
1.35251e-06
1.35551e-06
1.35698e-06
1.35677e-06
1.35501e-06
1.35251e-06
1.35251e-06
1.35251e-06
1.35251e-06
1.35514e-06
1.35559e-06
1.35705e-06
1.35694e-06
1.35561e-06
1.35553e-06
1.35549e-06
1.35546e-06
1.35551e-06
1.35559e-06
1.35685e-06
1.35703e-06
1.35681e-06
1.35571e-06
1.35698e-06
1.35705e-06
1.3423e-06
1.34219e-06
1.34208e-06
1.34063e-06
1.34054e-06
1.3405e-06
1.3406e-06
1.34201e-06
1.34218e-06
1.34208e-06
1.34016e-06
1.33776e-06
1.33776e-06
1.33776e-06
1.33776e-06
1.34026e-06
1.34086e-06
1.34063e-06
1.33776e-06
1.33776e-06
1.33776e-06
1.33776e-06
1.33776e-06
1.33776e-06
1.34078e-06
1.34228e-06
1.3423e-06
1.34054e-06
1.33776e-06
1.33776e-06
1.33776e-06
1.33776e-06
1.33776e-06
1.33776e-06
1.34074e-06
1.34206e-06
1.34219e-06
1.3405e-06
1.33776e-06
1.33776e-06
1.33776e-06
1.33776e-06
1.33776e-06
1.33776e-06
1.34071e-06
1.34096e-06
1.3406e-06
1.33776e-06
1.33776e-06
1.33776e-06
1.33776e-06
1.33776e-06
1.33776e-06
1.34076e-06
1.34223e-06
1.34201e-06
1.34026e-06
1.33776e-06
1.33776e-06
1.33776e-06
1.33776e-06
1.34039e-06
1.34084e-06
1.3423e-06
1.34218e-06
1.34086e-06
1.34078e-06
1.34074e-06
1.34071e-06
1.34076e-06
1.34084e-06
1.3421e-06
1.34228e-06
1.34206e-06
1.34096e-06
1.34223e-06
1.3423e-06
1.32755e-06
1.32744e-06
1.32733e-06
1.32588e-06
1.32579e-06
1.32575e-06
1.32585e-06
1.32726e-06
1.32743e-06
1.32733e-06
1.32541e-06
1.323e-06
1.323e-06
1.323e-06
1.323e-06
1.3255e-06
1.3261e-06
1.32588e-06
1.323e-06
1.323e-06
1.323e-06
1.323e-06
1.323e-06
1.323e-06
1.32602e-06
1.32753e-06
1.32755e-06
1.32579e-06
1.323e-06
1.323e-06
1.323e-06
1.323e-06
1.323e-06
1.323e-06
1.32599e-06
1.32731e-06
1.32744e-06
1.32575e-06
1.323e-06
1.323e-06
1.323e-06
1.323e-06
1.323e-06
1.323e-06
1.32596e-06
1.32621e-06
1.32585e-06
1.323e-06
1.323e-06
1.323e-06
1.323e-06
1.323e-06
1.323e-06
1.32601e-06
1.32748e-06
1.32726e-06
1.3255e-06
1.323e-06
1.323e-06
1.323e-06
1.323e-06
1.32564e-06
1.32609e-06
1.32754e-06
1.32743e-06
1.3261e-06
1.32602e-06
1.32599e-06
1.32596e-06
1.32601e-06
1.32609e-06
1.32735e-06
1.32753e-06
1.32731e-06
1.32621e-06
1.32748e-06
1.32754e-06
1.3128e-06
1.31269e-06
1.31257e-06
1.31113e-06
1.31104e-06
1.31099e-06
1.3111e-06
1.31251e-06
1.31268e-06
1.31257e-06
1.31066e-06
1.30825e-06
1.30825e-06
1.30825e-06
1.30825e-06
1.31075e-06
1.31135e-06
1.31113e-06
1.30825e-06
1.30825e-06
1.30825e-06
1.30825e-06
1.30825e-06
1.30825e-06
1.31127e-06
1.31278e-06
1.3128e-06
1.31104e-06
1.30825e-06
1.30825e-06
1.30825e-06
1.30825e-06
1.30825e-06
1.30825e-06
1.31123e-06
1.31255e-06
1.31269e-06
1.31099e-06
1.30825e-06
1.30825e-06
1.30825e-06
1.30825e-06
1.30825e-06
1.30825e-06
1.3112e-06
1.31146e-06
1.31109e-06
1.30825e-06
1.30825e-06
1.30825e-06
1.30825e-06
1.30825e-06
1.30825e-06
1.31126e-06
1.31273e-06
1.31251e-06
1.31075e-06
1.30825e-06
1.30825e-06
1.30825e-06
1.30825e-06
1.31089e-06
1.31134e-06
1.31279e-06
1.31268e-06
1.31135e-06
1.31127e-06
1.31123e-06
1.3112e-06
1.31126e-06
1.31134e-06
1.31259e-06
1.31278e-06
1.31255e-06
1.31146e-06
1.31273e-06
1.31279e-06
1.29805e-06
1.29793e-06
1.29782e-06
1.29637e-06
1.29628e-06
1.29624e-06
1.29634e-06
1.29775e-06
1.29792e-06
1.29782e-06
1.29591e-06
1.2935e-06
1.2935e-06
1.2935e-06
1.2935e-06
1.296e-06
1.2966e-06
1.29637e-06
1.2935e-06
1.2935e-06
1.2935e-06
1.2935e-06
1.2935e-06
1.2935e-06
1.29652e-06
1.29802e-06
1.29805e-06
1.29628e-06
1.29349e-06
1.2935e-06
1.2935e-06
1.2935e-06
1.2935e-06
1.2935e-06
1.29648e-06
1.2978e-06
1.29793e-06
1.29624e-06
1.2935e-06
1.2935e-06
1.2935e-06
1.2935e-06
1.2935e-06
1.2935e-06
1.29645e-06
1.29671e-06
1.29634e-06
1.29349e-06
1.2935e-06
1.2935e-06
1.2935e-06
1.2935e-06
1.2935e-06
1.2965e-06
1.29798e-06
1.29775e-06
1.296e-06
1.2935e-06
1.2935e-06
1.2935e-06
1.2935e-06
1.29613e-06
1.29659e-06
1.29804e-06
1.29792e-06
1.2966e-06
1.29652e-06
1.29648e-06
1.29645e-06
1.2965e-06
1.29659e-06
1.29784e-06
1.29802e-06
1.2978e-06
1.29671e-06
1.29798e-06
1.29804e-06
1.28329e-06
1.28318e-06
1.28307e-06
1.28162e-06
1.28153e-06
1.28149e-06
1.28159e-06
1.283e-06
1.28317e-06
1.28307e-06
1.28115e-06
1.27874e-06
1.27874e-06
1.27874e-06
1.27874e-06
1.28124e-06
1.28184e-06
1.28162e-06
1.27874e-06
1.27874e-06
1.27874e-06
1.27874e-06
1.27874e-06
1.27874e-06
1.28176e-06
1.28327e-06
1.28329e-06
1.28153e-06
1.27874e-06
1.27874e-06
1.27874e-06
1.27874e-06
1.27874e-06
1.27874e-06
1.28173e-06
1.28305e-06
1.28318e-06
1.28149e-06
1.27874e-06
1.27874e-06
1.27874e-06
1.27874e-06
1.27874e-06
1.27874e-06
1.2817e-06
1.28195e-06
1.28159e-06
1.27874e-06
1.27874e-06
1.27874e-06
1.27874e-06
1.27874e-06
1.27874e-06
1.28175e-06
1.28322e-06
1.283e-06
1.28124e-06
1.27874e-06
1.27874e-06
1.27874e-06
1.27874e-06
1.28138e-06
1.28183e-06
1.28329e-06
1.28317e-06
1.28184e-06
1.28176e-06
1.28173e-06
1.2817e-06
1.28175e-06
1.28183e-06
1.28309e-06
1.28327e-06
1.28305e-06
1.28195e-06
1.28322e-06
1.28329e-06
1.26854e-06
1.26843e-06
1.26831e-06
1.26687e-06
1.26678e-06
1.26674e-06
1.26684e-06
1.26825e-06
1.26842e-06
1.26831e-06
1.2664e-06
1.26399e-06
1.26399e-06
1.26399e-06
1.26399e-06
1.26649e-06
1.26709e-06
1.26687e-06
1.26399e-06
1.26399e-06
1.26399e-06
1.26399e-06
1.26399e-06
1.26399e-06
1.26701e-06
1.26852e-06
1.26854e-06
1.26678e-06
1.26399e-06
1.26399e-06
1.26399e-06
1.26399e-06
1.26399e-06
1.26399e-06
1.26697e-06
1.26829e-06
1.26842e-06
1.26674e-06
1.26399e-06
1.26399e-06
1.26399e-06
1.26399e-06
1.26399e-06
1.26399e-06
1.26694e-06
1.2672e-06
1.26684e-06
1.26399e-06
1.26399e-06
1.26399e-06
1.26399e-06
1.26399e-06
1.26399e-06
1.267e-06
1.26847e-06
1.26825e-06
1.26649e-06
1.26399e-06
1.26399e-06
1.26399e-06
1.26399e-06
1.26663e-06
1.26708e-06
1.26853e-06
1.26842e-06
1.26709e-06
1.26701e-06
1.26697e-06
1.26695e-06
1.267e-06
1.26708e-06
1.26833e-06
1.26852e-06
1.26829e-06
1.2672e-06
1.26847e-06
1.26853e-06
1.25379e-06
1.25367e-06
1.25356e-06
1.25211e-06
1.25202e-06
1.25198e-06
1.25208e-06
1.25349e-06
1.25366e-06
1.25356e-06
1.25165e-06
1.24924e-06
1.24924e-06
1.24924e-06
1.24924e-06
1.25174e-06
1.25234e-06
1.25211e-06
1.24924e-06
1.24924e-06
1.24923e-06
1.24924e-06
1.24924e-06
1.24924e-06
1.25226e-06
1.25376e-06
1.25378e-06
1.25202e-06
1.24924e-06
1.24924e-06
1.24924e-06
1.24924e-06
1.24923e-06
1.24924e-06
1.25222e-06
1.25354e-06
1.25367e-06
1.25198e-06
1.24924e-06
1.24924e-06
1.24924e-06
1.24924e-06
1.24924e-06
1.24924e-06
1.25219e-06
1.25245e-06
1.25208e-06
1.24924e-06
1.24924e-06
1.24924e-06
1.24924e-06
1.24923e-06
1.24924e-06
1.25224e-06
1.25372e-06
1.25349e-06
1.25174e-06
1.24924e-06
1.24924e-06
1.24923e-06
1.24924e-06
1.25187e-06
1.25233e-06
1.25378e-06
1.25366e-06
1.25234e-06
1.25226e-06
1.25222e-06
1.25219e-06
1.25224e-06
1.25233e-06
1.25358e-06
1.25376e-06
1.25354e-06
1.25245e-06
1.25372e-06
1.25378e-06
1.23903e-06
1.23892e-06
1.23881e-06
1.23736e-06
1.23727e-06
1.23723e-06
1.23733e-06
1.23874e-06
1.23891e-06
1.23881e-06
1.23689e-06
1.23448e-06
1.23448e-06
1.23448e-06
1.23448e-06
1.23698e-06
1.23758e-06
1.23736e-06
1.23448e-06
1.23448e-06
1.23448e-06
1.23448e-06
1.23448e-06
1.23448e-06
1.2375e-06
1.23901e-06
1.23903e-06
1.23727e-06
1.23448e-06
1.23448e-06
1.23448e-06
1.23448e-06
1.23448e-06
1.23448e-06
1.23747e-06
1.23879e-06
1.23892e-06
1.23723e-06
1.23448e-06
1.23448e-06
1.23448e-06
1.23448e-06
1.23448e-06
1.23448e-06
1.23744e-06
1.23769e-06
1.23733e-06
1.23448e-06
1.23448e-06
1.23448e-06
1.23448e-06
1.23448e-06
1.23448e-06
1.23749e-06
1.23896e-06
1.23874e-06
1.23698e-06
1.23448e-06
1.23448e-06
1.23448e-06
1.23448e-06
1.23712e-06
1.23757e-06
1.23903e-06
1.23891e-06
1.23758e-06
1.2375e-06
1.23747e-06
1.23744e-06
1.23749e-06
1.23757e-06
1.23883e-06
1.23901e-06
1.23879e-06
1.23769e-06
1.23896e-06
1.23902e-06
1.22428e-06
1.22417e-06
1.22405e-06
1.22261e-06
1.22252e-06
1.22247e-06
1.22257e-06
1.22399e-06
1.22416e-06
1.22405e-06
1.22214e-06
1.21973e-06
1.21973e-06
1.21973e-06
1.21973e-06
1.22223e-06
1.22283e-06
1.22261e-06
1.21973e-06
1.21973e-06
1.21973e-06
1.21973e-06
1.21973e-06
1.21973e-06
1.22275e-06
1.22426e-06
1.22428e-06
1.22252e-06
1.21973e-06
1.21973e-06
1.21973e-06
1.21973e-06
1.21973e-06
1.21973e-06
1.22271e-06
1.22403e-06
1.22417e-06
1.22247e-06
1.21973e-06
1.21973e-06
1.21973e-06
1.21973e-06
1.21973e-06
1.21973e-06
1.22268e-06
1.22294e-06
1.22257e-06
1.21973e-06
1.21973e-06
1.21973e-06
1.21973e-06
1.21973e-06
1.21973e-06
1.22274e-06
1.22421e-06
1.22399e-06
1.22223e-06
1.21973e-06
1.21973e-06
1.21973e-06
1.21973e-06
1.22237e-06
1.22282e-06
1.22427e-06
1.22416e-06
1.22283e-06
1.22275e-06
1.22271e-06
1.22268e-06
1.22274e-06
1.22282e-06
1.22407e-06
1.22426e-06
1.22403e-06
1.22294e-06
1.22421e-06
1.22427e-06
1.20952e-06
1.20941e-06
1.2093e-06
1.20785e-06
1.20776e-06
1.20772e-06
1.20782e-06
1.20923e-06
1.2094e-06
1.2093e-06
1.20738e-06
1.20498e-06
1.20497e-06
1.20497e-06
1.20498e-06
1.20748e-06
1.20808e-06
1.20785e-06
1.20498e-06
1.20497e-06
1.20498e-06
1.20497e-06
1.20498e-06
1.20497e-06
1.208e-06
1.2095e-06
1.20953e-06
1.20776e-06
1.20498e-06
1.20498e-06
1.20498e-06
1.20497e-06
1.20498e-06
1.20497e-06
1.20796e-06
1.20928e-06
1.20942e-06
1.20772e-06
1.20498e-06
1.20498e-06
1.20498e-06
1.20497e-06
1.20498e-06
1.20498e-06
1.20793e-06
1.20819e-06
1.20782e-06
1.20498e-06
1.20498e-06
1.20497e-06
1.20498e-06
1.20498e-06
1.20498e-06
1.20798e-06
1.20946e-06
1.20923e-06
1.20747e-06
1.20498e-06
1.20498e-06
1.20498e-06
1.20497e-06
1.20761e-06
1.20806e-06
1.20952e-06
1.2094e-06
1.20808e-06
1.208e-06
1.20796e-06
1.20793e-06
1.20798e-06
1.20806e-06
1.20932e-06
1.2095e-06
1.20928e-06
1.20819e-06
1.20946e-06
1.20952e-06
1.19477e-06
1.19466e-06
1.19455e-06
1.1931e-06
1.19301e-06
1.19297e-06
1.19307e-06
1.19448e-06
1.19465e-06
1.19455e-06
1.19263e-06
1.19022e-06
1.19022e-06
1.19022e-06
1.19022e-06
1.19272e-06
1.19332e-06
1.1931e-06
1.19022e-06
1.19022e-06
1.19022e-06
1.19022e-06
1.19022e-06
1.19022e-06
1.19324e-06
1.19475e-06
1.19477e-06
1.19301e-06
1.19022e-06
1.19022e-06
1.19022e-06
1.19022e-06
1.19022e-06
1.19022e-06
1.19321e-06
1.19453e-06
1.19466e-06
1.19297e-06
1.19022e-06
1.19022e-06
1.19022e-06
1.19022e-06
1.19022e-06
1.19022e-06
1.19318e-06
1.19343e-06
1.19307e-06
1.19022e-06
1.19022e-06
1.19022e-06
1.19022e-06
1.19022e-06
1.19022e-06
1.19323e-06
1.1947e-06
1.19448e-06
1.19272e-06
1.19022e-06
1.19022e-06
1.19022e-06
1.19022e-06
1.19286e-06
1.19331e-06
1.19477e-06
1.19465e-06
1.19332e-06
1.19324e-06
1.19321e-06
1.19318e-06
1.19323e-06
1.19331e-06
1.19457e-06
1.19475e-06
1.19453e-06
1.19343e-06
1.1947e-06
1.19477e-06
1.18002e-06
1.17991e-06
1.17979e-06
1.17835e-06
1.17826e-06
1.17822e-06
1.17832e-06
1.17973e-06
1.1799e-06
1.17979e-06
1.17788e-06
1.17547e-06
1.17547e-06
1.17547e-06
1.17547e-06
1.17797e-06
1.17857e-06
1.17835e-06
1.17547e-06
1.17547e-06
1.17547e-06
1.17547e-06
1.17547e-06
1.17547e-06
1.17849e-06
1.18e-06
1.18002e-06
1.17826e-06
1.17547e-06
1.17547e-06
1.17547e-06
1.17547e-06
1.17547e-06
1.17547e-06
1.17845e-06
1.17977e-06
1.17991e-06
1.17822e-06
1.17547e-06
1.17547e-06
1.17547e-06
1.17547e-06
1.17547e-06
1.17547e-06
1.17843e-06
1.17868e-06
1.17832e-06
1.17547e-06
1.17547e-06
1.17547e-06
1.17547e-06
1.17547e-06
1.17547e-06
1.17848e-06
1.17995e-06
1.17973e-06
1.17797e-06
1.17547e-06
1.17547e-06
1.17547e-06
1.17547e-06
1.17811e-06
1.17856e-06
1.18001e-06
1.1799e-06
1.17857e-06
1.17849e-06
1.17845e-06
1.17842e-06
1.17848e-06
1.17856e-06
1.17981e-06
1.18e-06
1.17977e-06
1.17868e-06
1.17995e-06
1.18001e-06
1.16527e-06
1.16515e-06
1.16504e-06
1.16359e-06
1.1635e-06
1.16346e-06
1.16356e-06
1.16498e-06
1.16514e-06
1.16504e-06
1.16313e-06
1.16072e-06
1.16072e-06
1.16072e-06
1.16072e-06
1.16322e-06
1.16382e-06
1.16359e-06
1.16072e-06
1.16072e-06
1.16072e-06
1.16072e-06
1.16072e-06
1.16072e-06
1.16374e-06
1.16524e-06
1.16527e-06
1.16351e-06
1.16072e-06
1.16072e-06
1.16071e-06
1.16072e-06
1.16072e-06
1.16072e-06
1.1637e-06
1.16502e-06
1.16515e-06
1.16346e-06
1.16072e-06
1.16072e-06
1.16072e-06
1.16072e-06
1.16072e-06
1.16072e-06
1.16367e-06
1.16393e-06
1.16356e-06
1.16072e-06
1.16072e-06
1.16072e-06
1.16071e-06
1.16071e-06
1.16072e-06
1.16373e-06
1.1652e-06
1.16498e-06
1.16322e-06
1.16072e-06
1.16072e-06
1.16072e-06
1.16072e-06
1.16335e-06
1.16381e-06
1.16526e-06
1.16514e-06
1.16382e-06
1.16374e-06
1.1637e-06
1.16367e-06
1.16373e-06
1.16381e-06
1.16506e-06
1.16524e-06
1.16502e-06
1.16393e-06
1.1652e-06
1.16526e-06
1.15051e-06
1.1504e-06
1.15029e-06
1.14884e-06
1.14875e-06
1.14871e-06
1.14881e-06
1.15022e-06
1.15039e-06
1.15029e-06
1.14837e-06
1.14596e-06
1.14596e-06
1.14596e-06
1.14596e-06
1.14846e-06
1.14907e-06
1.14884e-06
1.14596e-06
1.14597e-06
1.14596e-06
1.14596e-06
1.14596e-06
1.14596e-06
1.14899e-06
1.15049e-06
1.15051e-06
1.14875e-06
1.14596e-06
1.14596e-06
1.14596e-06
1.14596e-06
1.14596e-06
1.14596e-06
1.14895e-06
1.15027e-06
1.1504e-06
1.14871e-06
1.14596e-06
1.14596e-06
1.14596e-06
1.14596e-06
1.14596e-06
1.14596e-06
1.14892e-06
1.14917e-06
1.14881e-06
1.14596e-06
1.14596e-06
1.14596e-06
1.14596e-06
1.14596e-06
1.14596e-06
1.14897e-06
1.15044e-06
1.15022e-06
1.14846e-06
1.14596e-06
1.14596e-06
1.14596e-06
1.14596e-06
1.1486e-06
1.14905e-06
1.15051e-06
1.15039e-06
1.14907e-06
1.14899e-06
1.14895e-06
1.14892e-06
1.14897e-06
1.14905e-06
1.15031e-06
1.15049e-06
1.15027e-06
1.14917e-06
1.15045e-06
1.15051e-06
1.13576e-06
1.13565e-06
1.13553e-06
1.13409e-06
1.134e-06
1.13396e-06
1.13406e-06
1.13547e-06
1.13564e-06
1.13553e-06
1.13362e-06
1.13121e-06
1.13121e-06
1.13121e-06
1.13121e-06
1.13371e-06
1.13431e-06
1.13409e-06
1.13121e-06
1.13121e-06
1.13121e-06
1.13121e-06
1.13121e-06
1.13121e-06
1.13423e-06
1.13574e-06
1.13576e-06
1.134e-06
1.13121e-06
1.13121e-06
1.13121e-06
1.13121e-06
1.13121e-06
1.13121e-06
1.13419e-06
1.13551e-06
1.13565e-06
1.13396e-06
1.13121e-06
1.13121e-06
1.13121e-06
1.13121e-06
1.13121e-06
1.13121e-06
1.13417e-06
1.13442e-06
1.13406e-06
1.13121e-06
1.13121e-06
1.13121e-06
1.13121e-06
1.13121e-06
1.13121e-06
1.13422e-06
1.13569e-06
1.13547e-06
1.13371e-06
1.13121e-06
1.13121e-06
1.13121e-06
1.13121e-06
1.13385e-06
1.1343e-06
1.13575e-06
1.13564e-06
1.13431e-06
1.13423e-06
1.13419e-06
1.13417e-06
1.13422e-06
1.1343e-06
1.13556e-06
1.13574e-06
1.13552e-06
1.13442e-06
1.13569e-06
1.13575e-06
1.12101e-06
1.12089e-06
1.12078e-06
1.11933e-06
1.11925e-06
1.1192e-06
1.1193e-06
1.12072e-06
1.12088e-06
1.12078e-06
1.11887e-06
1.11646e-06
1.11646e-06
1.11646e-06
1.11646e-06
1.11896e-06
1.11956e-06
1.11933e-06
1.11646e-06
1.11646e-06
1.11646e-06
1.11646e-06
1.11646e-06
1.11646e-06
1.11948e-06
1.12098e-06
1.12101e-06
1.11925e-06
1.11646e-06
1.11646e-06
1.11646e-06
1.11646e-06
1.11646e-06
1.11646e-06
1.11944e-06
1.12076e-06
1.12089e-06
1.1192e-06
1.11646e-06
1.11646e-06
1.11646e-06
1.11646e-06
1.11646e-06
1.11646e-06
1.11941e-06
1.11967e-06
1.1193e-06
1.11646e-06
1.11646e-06
1.11646e-06
1.11646e-06
1.11645e-06
1.11646e-06
1.11947e-06
1.12094e-06
1.12072e-06
1.11896e-06
1.11646e-06
1.11646e-06
1.11646e-06
1.11646e-06
1.11909e-06
1.11955e-06
1.121e-06
1.12089e-06
1.11956e-06
1.11948e-06
1.11944e-06
1.11941e-06
1.11947e-06
1.11955e-06
1.1208e-06
1.12098e-06
1.12076e-06
1.11967e-06
1.12094e-06
1.121e-06
1.10625e-06
1.10614e-06
1.10603e-06
1.10458e-06
1.10449e-06
1.10445e-06
1.10455e-06
1.10596e-06
1.10613e-06
1.10603e-06
1.10411e-06
1.1017e-06
1.1017e-06
1.1017e-06
1.1017e-06
1.1042e-06
1.10481e-06
1.10458e-06
1.1017e-06
1.1017e-06
1.1017e-06
1.1017e-06
1.1017e-06
1.1017e-06
1.10473e-06
1.10623e-06
1.10625e-06
1.10449e-06
1.1017e-06
1.1017e-06
1.10171e-06
1.10171e-06
1.1017e-06
1.1017e-06
1.10469e-06
1.10601e-06
1.10614e-06
1.10445e-06
1.1017e-06
1.1017e-06
1.1017e-06
1.1017e-06
1.1017e-06
1.1017e-06
1.10466e-06
1.10491e-06
1.10455e-06
1.1017e-06
1.1017e-06
1.10171e-06
1.10171e-06
1.10171e-06
1.1017e-06
1.10471e-06
1.10619e-06
1.10596e-06
1.1042e-06
1.1017e-06
1.1017e-06
1.1017e-06
1.1017e-06
1.10434e-06
1.10479e-06
1.10625e-06
1.10613e-06
1.10481e-06
1.10473e-06
1.10469e-06
1.10466e-06
1.10471e-06
1.10479e-06
1.10605e-06
1.10623e-06
1.10601e-06
1.10492e-06
1.10618e-06
1.10625e-06
1.0915e-06
1.09139e-06
1.09127e-06
1.08983e-06
1.08974e-06
1.0897e-06
1.0898e-06
1.09121e-06
1.09138e-06
1.09127e-06
1.08936e-06
1.08695e-06
1.08695e-06
1.08695e-06
1.08695e-06
1.08945e-06
1.09005e-06
1.08983e-06
1.08695e-06
1.08695e-06
1.08695e-06
1.08695e-06
1.08695e-06
1.08695e-06
1.08997e-06
1.09148e-06
1.0915e-06
1.08974e-06
1.08695e-06
1.08695e-06
1.08695e-06
1.08695e-06
1.08695e-06
1.08695e-06
1.08993e-06
1.09125e-06
1.09139e-06
1.0897e-06
1.08695e-06
1.08695e-06
1.08695e-06
1.08695e-06
1.08695e-06
1.08695e-06
1.08991e-06
1.09016e-06
1.0898e-06
1.08695e-06
1.08695e-06
1.08695e-06
1.08695e-06
1.08695e-06
1.08695e-06
1.08996e-06
1.09143e-06
1.09121e-06
1.08945e-06
1.08695e-06
1.08695e-06
1.08695e-06
1.08695e-06
1.08959e-06
1.09004e-06
1.09149e-06
1.09138e-06
1.09005e-06
1.08997e-06
1.08993e-06
1.08991e-06
1.08996e-06
1.09004e-06
1.0913e-06
1.09148e-06
1.09126e-06
1.09016e-06
1.09143e-06
1.09149e-06
1.07675e-06
1.07663e-06
1.07652e-06
1.07507e-06
1.07499e-06
1.07494e-06
1.07504e-06
1.07646e-06
1.07663e-06
1.07652e-06
1.07461e-06
1.0722e-06
1.0722e-06
1.0722e-06
1.0722e-06
1.0747e-06
1.0753e-06
1.07507e-06
1.0722e-06
1.0722e-06
1.0722e-06
1.0722e-06
1.0722e-06
1.0722e-06
1.07522e-06
1.07672e-06
1.07675e-06
1.07498e-06
1.0722e-06
1.0722e-06
1.07219e-06
1.07219e-06
1.0722e-06
1.0722e-06
1.07518e-06
1.0765e-06
1.07663e-06
1.07494e-06
1.0722e-06
1.0722e-06
1.0722e-06
1.0722e-06
1.0722e-06
1.0722e-06
1.07515e-06
1.07541e-06
1.07504e-06
1.0722e-06
1.0722e-06
1.0722e-06
1.0722e-06
1.0722e-06
1.0722e-06
1.07521e-06
1.07668e-06
1.07646e-06
1.0747e-06
1.0722e-06
1.0722e-06
1.0722e-06
1.0722e-06
1.07483e-06
1.07529e-06
1.07674e-06
1.07663e-06
1.0753e-06
1.07522e-06
1.07518e-06
1.07515e-06
1.07521e-06
1.07529e-06
1.07654e-06
1.07672e-06
1.0765e-06
1.07541e-06
1.07668e-06
1.07674e-06
1.06199e-06
1.06188e-06
1.06177e-06
1.06032e-06
1.06023e-06
1.06019e-06
1.06029e-06
1.0617e-06
1.06187e-06
1.06177e-06
1.05985e-06
1.05744e-06
1.05744e-06
1.05744e-06
1.05744e-06
1.05994e-06
1.06055e-06
1.06032e-06
1.05744e-06
1.05744e-06
1.05744e-06
1.05744e-06
1.05744e-06
1.05744e-06
1.06047e-06
1.06197e-06
1.06199e-06
1.06023e-06
1.05744e-06
1.05745e-06
1.05745e-06
1.05745e-06
1.05745e-06
1.05744e-06
1.06043e-06
1.06175e-06
1.06188e-06
1.06019e-06
1.05744e-06
1.05744e-06
1.05744e-06
1.05744e-06
1.05744e-06
1.05744e-06
1.0604e-06
1.06065e-06
1.06029e-06
1.05744e-06
1.05744e-06
1.05744e-06
1.05744e-06
1.05744e-06
1.05744e-06
1.06045e-06
1.06193e-06
1.0617e-06
1.05994e-06
1.05744e-06
1.05744e-06
1.05744e-06
1.05744e-06
1.06008e-06
1.06053e-06
1.06199e-06
1.06187e-06
1.06055e-06
1.06047e-06
1.06043e-06
1.0604e-06
1.06045e-06
1.06053e-06
1.06179e-06
1.06197e-06
1.06175e-06
1.06066e-06
1.06193e-06
1.06199e-06
1.04724e-06
1.04713e-06
1.04702e-06
1.04557e-06
1.04548e-06
1.04544e-06
1.04554e-06
1.04695e-06
1.04712e-06
1.04701e-06
1.0451e-06
1.04269e-06
1.04269e-06
1.04269e-06
1.04269e-06
1.04519e-06
1.04579e-06
1.04557e-06
1.04269e-06
1.04269e-06
1.04269e-06
1.04269e-06
1.04269e-06
1.04269e-06
1.04571e-06
1.04722e-06
1.04724e-06
1.04548e-06
1.04269e-06
1.04269e-06
1.04269e-06
1.04269e-06
1.04269e-06
1.04269e-06
1.04567e-06
1.04699e-06
1.04713e-06
1.04544e-06
1.04269e-06
1.04269e-06
1.04269e-06
1.04269e-06
1.04269e-06
1.04269e-06
1.04565e-06
1.0459e-06
1.04554e-06
1.04269e-06
1.04269e-06
1.04269e-06
1.04269e-06
1.04269e-06
1.04269e-06
1.0457e-06
1.04717e-06
1.04695e-06
1.04519e-06
1.04269e-06
1.04269e-06
1.04269e-06
1.04269e-06
1.04533e-06
1.04578e-06
1.04723e-06
1.04712e-06
1.04579e-06
1.04571e-06
1.04567e-06
1.04565e-06
1.0457e-06
1.04578e-06
1.04704e-06
1.04722e-06
1.04699e-06
1.0459e-06
1.04717e-06
1.04723e-06
1.03249e-06
1.03238e-06
1.03226e-06
1.03081e-06
1.03073e-06
1.03068e-06
1.03078e-06
1.0322e-06
1.03237e-06
1.03226e-06
1.03035e-06
1.02794e-06
1.02794e-06
1.02794e-06
1.02794e-06
1.03044e-06
1.03104e-06
1.03082e-06
1.02794e-06
1.02794e-06
1.02794e-06
1.02794e-06
1.02794e-06
1.02794e-06
1.03096e-06
1.03246e-06
1.03249e-06
1.03073e-06
1.02794e-06
1.02794e-06
1.02794e-06
1.02794e-06
1.02794e-06
1.02794e-06
1.03092e-06
1.03224e-06
1.03238e-06
1.03068e-06
1.02794e-06
1.02794e-06
1.02794e-06
1.02794e-06
1.02794e-06
1.02794e-06
1.03089e-06
1.03115e-06
1.03078e-06
1.02794e-06
1.02794e-06
1.02794e-06
1.02794e-06
1.02794e-06
1.02794e-06
1.03095e-06
1.03242e-06
1.0322e-06
1.03044e-06
1.02794e-06
1.02794e-06
1.02794e-06
1.02794e-06
1.03057e-06
1.03103e-06
1.03248e-06
1.03237e-06
1.03104e-06
1.03096e-06
1.03092e-06
1.03089e-06
1.03095e-06
1.03103e-06
1.03228e-06
1.03246e-06
1.03224e-06
1.03115e-06
1.03242e-06
1.03248e-06
1.01773e-06
1.01762e-06
1.01751e-06
1.01606e-06
1.01597e-06
1.01593e-06
1.01603e-06
1.01744e-06
1.01761e-06
1.01751e-06
1.01559e-06
1.01318e-06
1.01318e-06
1.01319e-06
1.01319e-06
1.01568e-06
1.01629e-06
1.01606e-06
1.01319e-06
1.01319e-06
1.01318e-06
1.01318e-06
1.01319e-06
1.01318e-06
1.01621e-06
1.01771e-06
1.01773e-06
1.01597e-06
1.01319e-06
1.01319e-06
1.01318e-06
1.01318e-06
1.01318e-06
1.01318e-06
1.01617e-06
1.01749e-06
1.01762e-06
1.01593e-06
1.01319e-06
1.01319e-06
1.01319e-06
1.01319e-06
1.01319e-06
1.01318e-06
1.01614e-06
1.0164e-06
1.01603e-06
1.01318e-06
1.01319e-06
1.01319e-06
1.01318e-06
1.01319e-06
1.01318e-06
1.01619e-06
1.01767e-06
1.01744e-06
1.01568e-06
1.01318e-06
1.01318e-06
1.01318e-06
1.01318e-06
1.01582e-06
1.01627e-06
1.01773e-06
1.01761e-06
1.01629e-06
1.01621e-06
1.01617e-06
1.01614e-06
1.01619e-06
1.01627e-06
1.01753e-06
1.01771e-06
1.01749e-06
1.0164e-06
1.01767e-06
1.01773e-06
1.00298e-06
1.00287e-06
1.00276e-06
1.00131e-06
1.00122e-06
1.00118e-06
1.00128e-06
1.00269e-06
1.00286e-06
1.00276e-06
1.00084e-06
9.98432e-07
9.98432e-07
9.98432e-07
9.98431e-07
1.00093e-06
1.00153e-06
1.00131e-06
9.98431e-07
9.98432e-07
9.98432e-07
9.98432e-07
9.98432e-07
9.98432e-07
1.00145e-06
1.00296e-06
1.00298e-06
1.00122e-06
9.98432e-07
9.98432e-07
9.98431e-07
9.98432e-07
9.98432e-07
9.98431e-07
1.00142e-06
1.00274e-06
1.00287e-06
1.00118e-06
9.98431e-07
9.98433e-07
9.98431e-07
9.98432e-07
9.98432e-07
9.98432e-07
1.00139e-06
1.00164e-06
1.00128e-06
9.98432e-07
9.98432e-07
9.98431e-07
9.98432e-07
9.98432e-07
9.98432e-07
1.00144e-06
1.00291e-06
1.00269e-06
1.00093e-06
9.98432e-07
9.98431e-07
9.98432e-07
9.98432e-07
1.00107e-06
1.00152e-06
1.00297e-06
1.00286e-06
1.00153e-06
1.00145e-06
1.00142e-06
1.00139e-06
1.00144e-06
1.00152e-06
1.00278e-06
1.00296e-06
1.00274e-06
1.00164e-06
1.00291e-06
1.00297e-06
9.88228e-07
9.88116e-07
9.88002e-07
9.86555e-07
9.86467e-07
9.86424e-07
9.86525e-07
9.87937e-07
9.88107e-07
9.88002e-07
9.86088e-07
9.83678e-07
9.83678e-07
9.83678e-07
9.83679e-07
9.86178e-07
9.86781e-07
9.86555e-07
9.83679e-07
9.83678e-07
9.83679e-07
9.83679e-07
9.83678e-07
9.83678e-07
9.86701e-07
9.88205e-07
9.88226e-07
9.86467e-07
9.83679e-07
9.83677e-07
9.83679e-07
9.8368e-07
9.83681e-07
9.83679e-07
9.86662e-07
9.87983e-07
9.88112e-07
9.86425e-07
9.83679e-07
9.83678e-07
9.83678e-07
9.83677e-07
9.83677e-07
9.83677e-07
9.86634e-07
9.86889e-07
9.86525e-07
9.83679e-07
9.83678e-07
9.83678e-07
9.83679e-07
9.83678e-07
9.83679e-07
9.86687e-07
9.8816e-07
9.87937e-07
9.86178e-07
9.83678e-07
9.83679e-07
9.83679e-07
9.83679e-07
9.86315e-07
9.86768e-07
9.88222e-07
9.88107e-07
9.86781e-07
9.86701e-07
9.86662e-07
9.86634e-07
9.86687e-07
9.86768e-07
9.88024e-07
9.88205e-07
9.87983e-07
9.86889e-07
9.8816e-07
9.88221e-07
9.73474e-07
9.73363e-07
9.73249e-07
9.71802e-07
9.71713e-07
9.71671e-07
9.71771e-07
9.73184e-07
9.73353e-07
9.73249e-07
9.71335e-07
9.68925e-07
9.68925e-07
9.68925e-07
9.68925e-07
9.71425e-07
9.72027e-07
9.71802e-07
9.68925e-07
9.68924e-07
9.68925e-07
9.68925e-07
9.68925e-07
9.68925e-07
9.71947e-07
9.73452e-07
9.73474e-07
9.71713e-07
9.68925e-07
9.68925e-07
9.68925e-07
9.68923e-07
9.68924e-07
9.68925e-07
9.71908e-07
9.73229e-07
9.73362e-07
9.71671e-07
9.68925e-07
9.68924e-07
9.68926e-07
9.68924e-07
9.68926e-07
9.68925e-07
9.7188e-07
9.72136e-07
9.71771e-07
9.68924e-07
9.68924e-07
9.68926e-07
9.68923e-07
9.68927e-07
9.68924e-07
9.71933e-07
9.73406e-07
9.73184e-07
9.71425e-07
9.68924e-07
9.68927e-07
9.68923e-07
9.68925e-07
9.71562e-07
9.72014e-07
9.73468e-07
9.73353e-07
9.72027e-07
9.71947e-07
9.71909e-07
9.7188e-07
9.71934e-07
9.72014e-07
9.7327e-07
9.73452e-07
9.73229e-07
9.72136e-07
9.73406e-07
9.73468e-07
9.5872e-07
9.58609e-07
9.58495e-07
9.57048e-07
9.56959e-07
9.56917e-07
9.57018e-07
9.5843e-07
9.58599e-07
9.58495e-07
9.56581e-07
9.54171e-07
9.5417e-07
9.54171e-07
9.54171e-07
9.56671e-07
9.57273e-07
9.57048e-07
9.54172e-07
9.54173e-07
9.54173e-07
9.54172e-07
9.54171e-07
9.54171e-07
9.57193e-07
9.58698e-07
9.58721e-07
9.56959e-07
9.54171e-07
9.5417e-07
9.54171e-07
9.54172e-07
9.54171e-07
9.54172e-07
9.57155e-07
9.58475e-07
9.58609e-07
9.56917e-07
9.54171e-07
9.54171e-07
9.54171e-07
9.54172e-07
9.54171e-07
9.54172e-07
9.57127e-07
9.57382e-07
9.57018e-07
9.54171e-07
9.54172e-07
9.54171e-07
9.54173e-07
9.5417e-07
9.5417e-07
9.5718e-07
9.58653e-07
9.5843e-07
9.56671e-07
9.54171e-07
9.54169e-07
9.54173e-07
9.54171e-07
9.56808e-07
9.57261e-07
9.58714e-07
9.58599e-07
9.57273e-07
9.57193e-07
9.57155e-07
9.57127e-07
9.5718e-07
9.57261e-07
9.58516e-07
9.58698e-07
9.58475e-07
9.57382e-07
9.58653e-07
9.58714e-07
9.43967e-07
9.43855e-07
9.43742e-07
9.42295e-07
9.42206e-07
9.42163e-07
9.42264e-07
9.43677e-07
9.43846e-07
9.43741e-07
9.41827e-07
9.39419e-07
9.39418e-07
9.39418e-07
9.39418e-07
9.41918e-07
9.4252e-07
9.42294e-07
9.39417e-07
9.39419e-07
9.39417e-07
9.39418e-07
9.39417e-07
9.39418e-07
9.4244e-07
9.43945e-07
9.43967e-07
9.42206e-07
9.39418e-07
9.3942e-07
9.39418e-07
9.39418e-07
9.39418e-07
9.39418e-07
9.42401e-07
9.43722e-07
9.43855e-07
9.42164e-07
9.39418e-07
9.39417e-07
9.39417e-07
9.39418e-07
9.39418e-07
9.39418e-07
9.42373e-07
9.42628e-07
9.42264e-07
9.39418e-07
9.39418e-07
9.39418e-07
9.39417e-07
9.3942e-07
9.39418e-07
9.42426e-07
9.43899e-07
9.43676e-07
9.41917e-07
9.39418e-07
9.39419e-07
9.39418e-07
9.39417e-07
9.42055e-07
9.42507e-07
9.43961e-07
9.43846e-07
9.4252e-07
9.4244e-07
9.42401e-07
9.42373e-07
9.42426e-07
9.42507e-07