/*--------------------------------*- C++ -*----------------------------------*\
| =========                 |                                                 |
| \\      /  F ield         | OpenFOAM: The Open Source CFD Toolbox           |
|  \\    /   O peration     | Version:  v2012                                 |
|   \\  /    A nd           | Website:  www.openfoam.com                      |
|    \\/     M anipulation  |                                                 |
\*---------------------------------------------------------------------------*/
FoamFile
{
    version     2.0;
    format      ascii;
    class       volScalarField;
    location    "0.1";
    object      p;
}
// * * * * * * * * * * * * * * * * * * * * * * * * * * * * * * * * * * * * * //

dimensions      [0 2 -2 0 0 0 0];


internalField   nonuniform List<scalar> 
244288
(
2.24273e-06
2.24421e-06
2.24424e-06
2.24375e-06
2.24336e-06
2.24383e-06
2.24428e-06
2.24421e-06
2.24438e-06
2.24442e-06
2.24412e-06
2.24393e-06
2.24417e-06
2.24444e-06
2.24435e-06
2.24424e-06
2.24442e-06
2.24421e-06
2.24384e-06
2.24367e-06
2.24388e-06
2.24426e-06
2.24442e-06
2.24423e-06
2.24375e-06
2.24412e-06
2.24383e-06
2.24342e-06
2.24325e-06
2.24346e-06
2.24389e-06
2.24413e-06
2.24365e-06
2.24273e-06
2.24336e-06
2.24393e-06
2.24367e-06
2.24325e-06
2.24309e-06
2.2433e-06
2.24373e-06
2.24392e-06
2.24324e-06
2.24383e-06
2.24417e-06
2.24388e-06
2.24346e-06
2.2433e-06
2.24351e-06
2.24394e-06
2.24418e-06
2.24375e-06
2.24428e-06
2.24444e-06
2.24426e-06
2.24389e-06
2.24373e-06
2.24394e-06
2.24431e-06
2.24445e-06
2.24428e-06
2.24435e-06
2.24442e-06
2.24413e-06
2.24392e-06
2.24418e-06
2.24444e-06
2.24432e-06
2.24423e-06
2.24365e-06
2.24324e-06
2.24375e-06
2.24427e-06
2.20934e-06
2.20779e-06
2.20877e-06
2.20696e-06
2.20666e-06
2.20654e-06
2.20667e-06
2.20943e-06
2.20928e-06
2.20876e-06
2.20615e-06
2.20322e-06
2.20309e-06
2.20309e-06
2.20323e-06
2.20778e-06
2.20719e-06
2.20695e-06
2.20322e-06
2.20304e-06
2.20303e-06
2.20303e-06
2.20305e-06
2.20323e-06
2.20807e-06
2.21003e-06
2.20932e-06
2.20666e-06
2.20309e-06
2.20303e-06
2.20306e-06
2.20306e-06
2.20303e-06
2.2031e-06
2.20766e-06
2.20877e-06
2.20778e-06
2.20654e-06
2.20309e-06
2.20303e-06
2.20306e-06
2.20306e-06
2.20303e-06
2.2031e-06
2.20758e-06
2.20623e-06
2.20667e-06
2.20323e-06
2.20304e-06
2.20303e-06
2.20303e-06
2.20305e-06
2.20323e-06
2.2078e-06
2.20779e-06
2.20942e-06
2.20778e-06
2.20322e-06
2.20309e-06
2.2031e-06
2.20323e-06
2.2085e-06
2.20789e-06
2.2101e-06
2.20928e-06
2.20719e-06
2.20807e-06
2.20766e-06
2.20758e-06
2.2078e-06
2.2079e-06
2.21053e-06
2.21002e-06
2.20877e-06
2.20623e-06
2.20779e-06
2.2101e-06
2.18817e-06
2.18795e-06
2.18799e-06
2.18528e-06
2.18528e-06
2.18519e-06
2.18535e-06
2.18883e-06
2.18867e-06
2.18798e-06
2.18412e-06
2.18093e-06
2.18056e-06
2.18054e-06
2.1809e-06
2.18681e-06
2.18634e-06
2.18527e-06
2.18093e-06
2.17984e-06
2.17981e-06
2.1798e-06
2.17982e-06
2.18095e-06
2.18806e-06
2.18958e-06
2.1881e-06
2.1853e-06
2.18055e-06
2.17981e-06
2.17984e-06
2.17984e-06
2.1798e-06
2.18054e-06
2.18804e-06
2.18859e-06
2.18789e-06
2.18519e-06
2.18054e-06
2.1798e-06
2.17983e-06
2.17983e-06
2.1798e-06
2.18055e-06
2.18786e-06
2.18551e-06
2.18534e-06
2.18089e-06
2.17982e-06
2.17979e-06
2.17979e-06
2.17982e-06
2.18091e-06
2.18818e-06
2.18932e-06
2.18883e-06
2.1868e-06
2.18093e-06
2.18053e-06
2.18052e-06
2.18092e-06
2.18872e-06
2.18728e-06
2.18931e-06
2.18868e-06
2.18633e-06
2.18805e-06
2.18802e-06
2.18785e-06
2.18818e-06
2.1873e-06
2.1899e-06
2.18956e-06
2.18853e-06
2.18554e-06
2.18933e-06
2.1893e-06
2.16543e-06
2.16526e-06
2.16525e-06
2.16226e-06
2.16232e-06
2.16209e-06
2.16253e-06
2.1661e-06
2.166e-06
2.16527e-06
2.16053e-06
2.15774e-06
2.1576e-06
2.15759e-06
2.15777e-06
2.16359e-06
2.1638e-06
2.16226e-06
2.15774e-06
2.15737e-06
2.15734e-06
2.15734e-06
2.15737e-06
2.15775e-06
2.16543e-06
2.1669e-06
2.1654e-06
2.16234e-06
2.15759e-06
2.15734e-06
2.15732e-06
2.15732e-06
2.15734e-06
2.1576e-06
2.1658e-06
2.16593e-06
2.16524e-06
2.16209e-06
2.15759e-06
2.15734e-06
2.15732e-06
2.15732e-06
2.15734e-06
2.1576e-06
2.16568e-06
2.16305e-06
2.16252e-06
2.15777e-06
2.15737e-06
2.15734e-06
2.15734e-06
2.15737e-06
2.15778e-06
2.1658e-06
2.16667e-06
2.1661e-06
2.16359e-06
2.15775e-06
2.1576e-06
2.1576e-06
2.15775e-06
2.16635e-06
2.16468e-06
2.16674e-06
2.16601e-06
2.1638e-06
2.16543e-06
2.16581e-06
2.16569e-06
2.16579e-06
2.16468e-06
2.16707e-06
2.16688e-06
2.16592e-06
2.16307e-06
2.16667e-06
2.16672e-06
2.1424e-06
2.14226e-06
2.14199e-06
2.13892e-06
2.13898e-06
2.1386e-06
2.13922e-06
2.1428e-06
2.14269e-06
2.14199e-06
2.13682e-06
2.13428e-06
2.13424e-06
2.13424e-06
2.13429e-06
2.14e-06
2.14058e-06
2.13892e-06
2.13428e-06
2.13419e-06
2.13418e-06
2.13418e-06
2.13419e-06
2.13428e-06
2.14227e-06
2.14377e-06
2.14241e-06
2.13897e-06
2.13424e-06
2.13418e-06
2.13418e-06
2.13418e-06
2.13418e-06
2.13424e-06
2.14293e-06
2.143e-06
2.14227e-06
2.1386e-06
2.13424e-06
2.13418e-06
2.13418e-06
2.13418e-06
2.13418e-06
2.13424e-06
2.14287e-06
2.14019e-06
2.13923e-06
2.13429e-06
2.13419e-06
2.13419e-06
2.13419e-06
2.13419e-06
2.13429e-06
2.14278e-06
2.1437e-06
2.1428e-06
2.14e-06
2.13428e-06
2.13425e-06
2.13424e-06
2.13428e-06
2.1434e-06
2.14155e-06
2.14354e-06
2.1427e-06
2.14059e-06
2.14228e-06
2.14294e-06
2.14287e-06
2.14278e-06
2.14156e-06
2.14379e-06
2.14378e-06
2.14301e-06
2.1402e-06
2.1437e-06
2.14355e-06
2.11917e-06
2.11905e-06
2.11868e-06
2.1156e-06
2.11565e-06
2.11521e-06
2.1159e-06
2.1195e-06
2.11939e-06
2.11868e-06
2.11341e-06
2.11091e-06
2.1109e-06
2.1109e-06
2.11091e-06
2.11657e-06
2.11729e-06
2.1156e-06
2.11091e-06
2.11089e-06
2.11089e-06
2.11089e-06
2.11089e-06
2.11091e-06
2.11899e-06
2.12049e-06
2.11922e-06
2.11561e-06
2.1109e-06
2.11089e-06
2.11089e-06
2.11089e-06
2.11089e-06
2.1109e-06
2.11972e-06
2.1198e-06
2.11909e-06
2.11525e-06
2.11091e-06
2.11089e-06
2.11089e-06
2.11089e-06
2.11089e-06
2.1109e-06
2.11968e-06
2.11701e-06
2.1159e-06
2.11092e-06
2.11089e-06
2.11089e-06
2.11089e-06
2.11089e-06
2.11092e-06
2.11952e-06
2.12047e-06
2.11949e-06
2.11658e-06
2.11091e-06
2.1109e-06
2.11091e-06
2.11091e-06
2.12021e-06
2.11829e-06
2.12026e-06
2.11939e-06
2.11728e-06
2.11899e-06
2.11972e-06
2.11968e-06
2.11953e-06
2.1183e-06
2.12049e-06
2.12049e-06
2.11979e-06
2.11701e-06
2.12047e-06
2.12026e-06
2.09586e-06
2.09574e-06
2.09537e-06
2.09227e-06
2.09232e-06
2.09186e-06
2.09257e-06
2.09617e-06
2.09605e-06
2.09536e-06
2.09006e-06
2.08757e-06
2.08757e-06
2.08757e-06
2.08757e-06
2.09322e-06
2.09397e-06
2.09227e-06
2.08757e-06
2.08757e-06
2.08757e-06
2.08757e-06
2.08757e-06
2.08757e-06
2.09566e-06
2.09716e-06
2.09593e-06
2.09228e-06
2.08757e-06
2.08757e-06
2.08757e-06
2.08757e-06
2.08757e-06
2.08757e-06
2.09642e-06
2.09649e-06
2.09576e-06
2.0919e-06
2.08757e-06
2.08757e-06
2.08757e-06
2.08757e-06
2.08757e-06
2.08757e-06
2.09638e-06
2.09372e-06
2.09257e-06
2.08757e-06
2.08757e-06
2.08757e-06
2.08757e-06
2.08757e-06
2.08757e-06
2.09621e-06
2.09717e-06
2.09617e-06
2.09322e-06
2.08757e-06
2.08757e-06
2.08757e-06
2.08757e-06
2.09692e-06
2.09499e-06
2.09694e-06
2.09606e-06
2.09396e-06
2.09567e-06
2.09642e-06
2.09639e-06
2.09621e-06
2.09498e-06
2.09717e-06
2.09717e-06
2.09648e-06
2.09372e-06
2.09717e-06
2.09693e-06
2.07254e-06
2.07242e-06
2.07204e-06
2.06894e-06
2.06899e-06
2.06853e-06
2.06924e-06
2.07284e-06
2.07273e-06
2.07202e-06
2.0667e-06
2.06424e-06
2.06424e-06
2.06424e-06
2.06424e-06
2.06988e-06
2.07064e-06
2.06893e-06
2.06424e-06
2.06424e-06
2.06424e-06
2.06424e-06
2.06424e-06
2.06424e-06
2.07234e-06
2.07384e-06
2.07257e-06
2.06895e-06
2.06424e-06
2.06424e-06
2.06424e-06
2.06424e-06
2.06424e-06
2.06424e-06
2.0731e-06
2.07316e-06
2.07244e-06
2.0685e-06
2.06424e-06
2.06424e-06
2.06424e-06
2.06424e-06
2.06424e-06
2.06424e-06
2.07306e-06
2.07039e-06
2.06925e-06
2.06424e-06
2.06424e-06
2.06424e-06
2.06424e-06
2.06424e-06
2.06424e-06
2.07289e-06
2.07384e-06
2.07285e-06
2.06988e-06
2.06424e-06
2.06424e-06
2.06424e-06
2.06424e-06
2.07359e-06
2.07166e-06
2.07361e-06
2.07273e-06
2.07064e-06
2.07234e-06
2.0731e-06
2.07307e-06
2.07289e-06
2.07166e-06
2.07384e-06
2.07385e-06
2.07317e-06
2.0704e-06
2.07384e-06
2.0736e-06
2.04921e-06
2.04909e-06
2.04871e-06
2.04561e-06
2.04566e-06
2.04519e-06
2.04591e-06
2.04951e-06
2.0494e-06
2.04869e-06
2.04337e-06
2.04091e-06
2.04091e-06
2.04091e-06
2.04091e-06
2.04655e-06
2.04731e-06
2.04559e-06
2.04091e-06
2.04091e-06
2.04091e-06
2.04091e-06
2.04091e-06
2.04091e-06
2.04901e-06
2.05051e-06
2.04915e-06
2.04566e-06
2.04091e-06
2.04091e-06
2.04091e-06
2.04091e-06
2.04091e-06
2.04091e-06
2.04977e-06
2.04984e-06
2.04903e-06
2.04524e-06
2.04091e-06
2.04091e-06
2.04091e-06
2.04091e-06
2.04091e-06
2.04091e-06
2.04974e-06
2.04707e-06
2.0459e-06
2.04091e-06
2.04091e-06
2.04091e-06
2.04091e-06
2.04091e-06
2.04091e-06
2.04956e-06
2.05052e-06
2.04951e-06
2.04655e-06
2.04091e-06
2.04091e-06
2.04091e-06
2.04091e-06
2.05027e-06
2.04834e-06
2.05028e-06
2.0494e-06
2.0473e-06
2.04901e-06
2.04977e-06
2.04974e-06
2.04956e-06
2.04833e-06
2.05051e-06
2.05052e-06
2.04984e-06
2.04707e-06
2.05052e-06
2.05027e-06
2.02588e-06
2.02576e-06
2.02538e-06
2.02228e-06
2.02233e-06
2.02186e-06
2.02258e-06
2.02618e-06
2.02607e-06
2.02536e-06
2.02004e-06
2.01758e-06
2.01758e-06
2.01758e-06
2.01758e-06
2.02322e-06
2.02398e-06
2.02227e-06
2.01758e-06
2.01758e-06
2.01758e-06
2.01758e-06
2.01758e-06
2.01758e-06
2.02568e-06
2.02718e-06
2.02581e-06
2.02231e-06
2.01758e-06
2.01758e-06
2.01758e-06
2.01758e-06
2.01758e-06
2.01758e-06
2.02644e-06
2.02651e-06
2.02568e-06
2.0219e-06
2.01758e-06
2.01758e-06
2.01758e-06
2.01758e-06
2.01758e-06
2.01758e-06
2.02641e-06
2.02374e-06
2.02256e-06
2.01758e-06
2.01758e-06
2.01758e-06
2.01758e-06
2.01758e-06
2.01758e-06
2.02623e-06
2.02718e-06
2.02618e-06
2.02322e-06
2.01758e-06
2.01758e-06
2.01758e-06
2.01758e-06
2.02694e-06
2.02501e-06
2.02695e-06
2.02607e-06
2.02397e-06
2.02568e-06
2.02644e-06
2.02641e-06
2.02623e-06
2.025e-06
2.02718e-06
2.02719e-06
2.02651e-06
2.02374e-06
2.02718e-06
2.02694e-06
2.00255e-06
2.00244e-06
2.00205e-06
1.99895e-06
1.99899e-06
1.99853e-06
1.99924e-06
2.00285e-06
2.00274e-06
2.00203e-06
1.99671e-06
1.99424e-06
1.99425e-06
1.99425e-06
1.99425e-06
1.99988e-06
2.00065e-06
1.99893e-06
1.99424e-06
1.99424e-06
1.99425e-06
1.99425e-06
1.99425e-06
1.99425e-06
2.00235e-06
2.00385e-06
2.00249e-06
1.99898e-06
1.99425e-06
1.99425e-06
1.99425e-06
1.99425e-06
1.99425e-06
1.99425e-06
2.00311e-06
2.00317e-06
2.00239e-06
1.99856e-06
1.99425e-06
1.99425e-06
1.99425e-06
1.99425e-06
1.99425e-06
1.99425e-06
2.00308e-06
2.00041e-06
1.99924e-06
1.99425e-06
1.99425e-06
1.99425e-06
1.99425e-06
1.99425e-06
1.99425e-06
2.0029e-06
2.00385e-06
2.00284e-06
1.99989e-06
1.99425e-06
1.99425e-06
1.99425e-06
1.99425e-06
2.00361e-06
2.00168e-06
2.00362e-06
2.00274e-06
2.00064e-06
2.00235e-06
2.00311e-06
2.00308e-06
2.0029e-06
2.00167e-06
2.00385e-06
2.00385e-06
2.00318e-06
2.00041e-06
2.00386e-06
2.00361e-06
1.97922e-06
1.9791e-06
1.97872e-06
1.97561e-06
1.97566e-06
1.9752e-06
1.97591e-06
1.97952e-06
1.9794e-06
1.9787e-06
1.97338e-06
1.97091e-06
1.97091e-06
1.97091e-06
1.97091e-06
1.97655e-06
1.97731e-06
1.97561e-06
1.97091e-06
1.97091e-06
1.97091e-06
1.97091e-06
1.97091e-06
1.97091e-06
1.97902e-06
1.98052e-06
1.97922e-06
1.97566e-06
1.97091e-06
1.97091e-06
1.97091e-06
1.97091e-06
1.97091e-06
1.97091e-06
1.97977e-06
1.97985e-06
1.9791e-06
1.9752e-06
1.97091e-06
1.97091e-06
1.97091e-06
1.97091e-06
1.97091e-06
1.97091e-06
1.97974e-06
1.97708e-06
1.97592e-06
1.97091e-06
1.97091e-06
1.97091e-06
1.97091e-06
1.97091e-06
1.97091e-06
1.97957e-06
1.98052e-06
1.97952e-06
1.97656e-06
1.97091e-06
1.97091e-06
1.97091e-06
1.97091e-06
1.98028e-06
1.97834e-06
1.98029e-06
1.9794e-06
1.97731e-06
1.97902e-06
1.97978e-06
1.97975e-06
1.97957e-06
1.97833e-06
1.98052e-06
1.98052e-06
1.97985e-06
1.97707e-06
1.98053e-06
1.98028e-06
1.95589e-06
1.95577e-06
1.95538e-06
1.95228e-06
1.95233e-06
1.95187e-06
1.95258e-06
1.95619e-06
1.95607e-06
1.95537e-06
1.95005e-06
1.94758e-06
1.94758e-06
1.94758e-06
1.94758e-06
1.95322e-06
1.95398e-06
1.95228e-06
1.94758e-06
1.94758e-06
1.94758e-06
1.94758e-06
1.94758e-06
1.94758e-06
1.95568e-06
1.95719e-06
1.95591e-06
1.9523e-06
1.94758e-06
1.94758e-06
1.94758e-06
1.94758e-06
1.94758e-06
1.94758e-06
1.95644e-06
1.95651e-06
1.95577e-06
1.9519e-06
1.94758e-06
1.94758e-06
1.94758e-06
1.94758e-06
1.94758e-06
1.94758e-06
1.95641e-06
1.95375e-06
1.95257e-06
1.94758e-06
1.94758e-06
1.94758e-06
1.94758e-06
1.94758e-06
1.94758e-06
1.95624e-06
1.95719e-06
1.95618e-06
1.95322e-06
1.94758e-06
1.94758e-06
1.94758e-06
1.94758e-06
1.95695e-06
1.95501e-06
1.95696e-06
1.95607e-06
1.95398e-06
1.95568e-06
1.95644e-06
1.95642e-06
1.95623e-06
1.95501e-06
1.95719e-06
1.95719e-06
1.95651e-06
1.95374e-06
1.95719e-06
1.95695e-06
1.93255e-06
1.93244e-06
1.93205e-06
1.92895e-06
1.929e-06
1.92854e-06
1.92925e-06
1.93286e-06
1.93274e-06
1.93204e-06
1.92672e-06
1.92425e-06
1.92425e-06
1.92425e-06
1.92425e-06
1.92989e-06
1.93065e-06
1.92895e-06
1.92425e-06
1.92425e-06
1.92425e-06
1.92425e-06
1.92425e-06
1.92425e-06
1.93235e-06
1.93385e-06
1.93265e-06
1.92895e-06
1.92425e-06
1.92425e-06
1.92425e-06
1.92425e-06
1.92425e-06
1.92425e-06
1.93311e-06
1.93318e-06
1.93242e-06
1.92859e-06
1.92425e-06
1.92425e-06
1.92425e-06
1.92425e-06
1.92425e-06
1.92425e-06
1.93308e-06
1.93041e-06
1.92925e-06
1.92425e-06
1.92425e-06
1.92425e-06
1.92425e-06
1.92425e-06
1.92425e-06
1.9329e-06
1.93386e-06
1.93285e-06
1.92989e-06
1.92425e-06
1.92425e-06
1.92425e-06
1.92425e-06
1.93362e-06
1.93168e-06
1.93362e-06
1.93273e-06
1.93064e-06
1.93235e-06
1.93311e-06
1.93309e-06
1.9329e-06
1.93167e-06
1.93385e-06
1.93386e-06
1.93318e-06
1.93041e-06
1.93387e-06
1.93362e-06
1.90922e-06
1.9091e-06
1.90872e-06
1.90562e-06
1.90567e-06
1.9052e-06
1.90592e-06
1.90953e-06
1.90941e-06
1.90871e-06
1.90339e-06
1.90092e-06
1.90092e-06
1.90092e-06
1.90092e-06
1.90656e-06
1.90732e-06
1.90562e-06
1.90092e-06
1.90092e-06
1.90092e-06
1.90092e-06
1.90092e-06
1.90092e-06
1.90902e-06
1.91052e-06
1.90928e-06
1.90562e-06
1.90092e-06
1.90092e-06
1.90092e-06
1.90092e-06
1.90092e-06
1.90092e-06
1.90978e-06
1.90985e-06
1.90917e-06
1.90523e-06
1.90092e-06
1.90092e-06
1.90092e-06
1.90092e-06
1.90092e-06
1.90092e-06
1.90975e-06
1.90708e-06
1.90593e-06
1.90092e-06
1.90092e-06
1.90092e-06
1.90092e-06
1.90092e-06
1.90092e-06
1.90957e-06
1.91053e-06
1.90952e-06
1.90655e-06
1.90092e-06
1.90092e-06
1.90092e-06
1.90092e-06
1.91028e-06
1.90835e-06
1.91029e-06
1.90941e-06
1.90731e-06
1.90902e-06
1.90978e-06
1.90976e-06
1.90957e-06
1.90834e-06
1.91052e-06
1.91053e-06
1.90985e-06
1.90708e-06
1.91053e-06
1.91029e-06
1.88589e-06
1.88578e-06
1.88538e-06
1.88229e-06
1.88233e-06
1.88187e-06
1.88259e-06
1.88619e-06
1.88608e-06
1.88537e-06
1.88005e-06
1.87758e-06
1.87759e-06
1.87759e-06
1.87759e-06
1.88323e-06
1.88399e-06
1.88228e-06
1.87759e-06
1.87758e-06
1.87759e-06
1.87759e-06
1.87759e-06
1.87759e-06
1.88569e-06
1.88719e-06
1.88589e-06
1.88232e-06
1.87759e-06
1.87759e-06
1.87759e-06
1.87759e-06
1.87759e-06
1.87759e-06
1.88645e-06
1.88652e-06
1.88575e-06
1.88188e-06
1.87759e-06
1.87759e-06
1.87759e-06
1.87759e-06
1.87759e-06
1.87759e-06
1.88642e-06
1.88375e-06
1.88258e-06
1.87759e-06
1.87759e-06
1.87759e-06
1.87759e-06
1.87759e-06
1.87759e-06
1.88624e-06
1.88719e-06
1.8862e-06
1.88323e-06
1.87759e-06
1.87759e-06
1.87759e-06
1.87759e-06
1.88695e-06
1.88502e-06
1.88696e-06
1.88608e-06
1.88398e-06
1.88569e-06
1.88645e-06
1.88642e-06
1.88624e-06
1.88501e-06
1.88719e-06
1.8872e-06
1.88652e-06
1.88375e-06
1.8872e-06
1.88695e-06
1.86256e-06
1.86244e-06
1.86205e-06
1.85895e-06
1.859e-06
1.85854e-06
1.85925e-06
1.86286e-06
1.86274e-06
1.86203e-06
1.85672e-06
1.85425e-06
1.85425e-06
1.85425e-06
1.85425e-06
1.85989e-06
1.86065e-06
1.85895e-06
1.85425e-06
1.85425e-06
1.85425e-06
1.85425e-06
1.85425e-06
1.85425e-06
1.86236e-06
1.86386e-06
1.86257e-06
1.85899e-06
1.85425e-06
1.85425e-06
1.85425e-06
1.85425e-06
1.85425e-06
1.85425e-06
1.86312e-06
1.86318e-06
1.86246e-06
1.85854e-06
1.85426e-06
1.85425e-06
1.85425e-06
1.85425e-06
1.85425e-06
1.85425e-06
1.86308e-06
1.86042e-06
1.85926e-06
1.85426e-06
1.85426e-06
1.85425e-06
1.85425e-06
1.85425e-06
1.85425e-06
1.86291e-06
1.86386e-06
1.86286e-06
1.85989e-06
1.85426e-06
1.85426e-06
1.85426e-06
1.85426e-06
1.86362e-06
1.86168e-06
1.86363e-06
1.86275e-06
1.86065e-06
1.86236e-06
1.86311e-06
1.86309e-06
1.8629e-06
1.86168e-06
1.86385e-06
1.86386e-06
1.86319e-06
1.8604e-06
1.86387e-06
1.86362e-06
1.83923e-06
1.83911e-06
1.83872e-06
1.83562e-06
1.83568e-06
1.83521e-06
1.83592e-06
1.83953e-06
1.83941e-06
1.8387e-06
1.83339e-06
1.83092e-06
1.83092e-06
1.83092e-06
1.83092e-06
1.83656e-06
1.83732e-06
1.83562e-06
1.83092e-06
1.83092e-06
1.83092e-06
1.83092e-06
1.83092e-06
1.83092e-06
1.83903e-06
1.84053e-06
1.83923e-06
1.83567e-06
1.83092e-06
1.83092e-06
1.83092e-06
1.83092e-06
1.83092e-06
1.83092e-06
1.83978e-06
1.83985e-06
1.83912e-06
1.83521e-06
1.83093e-06
1.83092e-06
1.83092e-06
1.83092e-06
1.83092e-06
1.83092e-06
1.83975e-06
1.83709e-06
1.83593e-06
1.83092e-06
1.83092e-06
1.83092e-06
1.83092e-06
1.83092e-06
1.83092e-06
1.83958e-06
1.84053e-06
1.83953e-06
1.83656e-06
1.83092e-06
1.83092e-06
1.83092e-06
1.83093e-06
1.84029e-06
1.83835e-06
1.84029e-06
1.83942e-06
1.83732e-06
1.83903e-06
1.83978e-06
1.83975e-06
1.83956e-06
1.83834e-06
1.84052e-06
1.84056e-06
1.8399e-06
1.83703e-06
1.84051e-06
1.84028e-06
1.8159e-06
1.81578e-06
1.81539e-06
1.81229e-06
1.81234e-06
1.81187e-06
1.81259e-06
1.8162e-06
1.81608e-06
1.81537e-06
1.81006e-06
1.80759e-06
1.80759e-06
1.80759e-06
1.80759e-06
1.81323e-06
1.81399e-06
1.81229e-06
1.80759e-06
1.80759e-06
1.80759e-06
1.80759e-06
1.80759e-06
1.80759e-06
1.81569e-06
1.81719e-06
1.81588e-06
1.81235e-06
1.80759e-06
1.80759e-06
1.80759e-06
1.80759e-06
1.80759e-06
1.80759e-06
1.81645e-06
1.81652e-06
1.81576e-06
1.81189e-06
1.80759e-06
1.80759e-06
1.80759e-06
1.80759e-06
1.80759e-06
1.80759e-06
1.81642e-06
1.81375e-06
1.81259e-06
1.80759e-06
1.80759e-06
1.80759e-06
1.80759e-06
1.80759e-06
1.80759e-06
1.81624e-06
1.8172e-06
1.8162e-06
1.81324e-06
1.80759e-06
1.80759e-06
1.80759e-06
1.80759e-06
1.81695e-06
1.81502e-06
1.81696e-06
1.81608e-06
1.81399e-06
1.8157e-06
1.81646e-06
1.81644e-06
1.81623e-06
1.81501e-06
1.81719e-06
1.81721e-06
1.81658e-06
1.81374e-06
1.81718e-06
1.81694e-06
1.79256e-06
1.79245e-06
1.79206e-06
1.78896e-06
1.78901e-06
1.78854e-06
1.78926e-06
1.79287e-06
1.79275e-06
1.79204e-06
1.78673e-06
1.78426e-06
1.78426e-06
1.78426e-06
1.78426e-06
1.7899e-06
1.79066e-06
1.78895e-06
1.78426e-06
1.78426e-06
1.78426e-06
1.78426e-06
1.78426e-06
1.78426e-06
1.79236e-06
1.79386e-06
1.79257e-06
1.78901e-06
1.78426e-06
1.78426e-06
1.78426e-06
1.78426e-06
1.78426e-06
1.78426e-06
1.79312e-06
1.79319e-06
1.79244e-06
1.78854e-06
1.78426e-06
1.78426e-06
1.78426e-06
1.78426e-06
1.78426e-06
1.78426e-06
1.79309e-06
1.79042e-06
1.78926e-06
1.78426e-06
1.78426e-06
1.78426e-06
1.78426e-06
1.78426e-06
1.78426e-06
1.79291e-06
1.79387e-06
1.79286e-06
1.7899e-06
1.78426e-06
1.78426e-06
1.78426e-06
1.78426e-06
1.79363e-06
1.79169e-06
1.79363e-06
1.79275e-06
1.79065e-06
1.79235e-06
1.79311e-06
1.79312e-06
1.79292e-06
1.79168e-06
1.79386e-06
1.79388e-06
1.79314e-06
1.79046e-06
1.79388e-06
1.79364e-06
1.76923e-06
1.76911e-06
1.76873e-06
1.76563e-06
1.76568e-06
1.76522e-06
1.76593e-06
1.76953e-06
1.76942e-06
1.76871e-06
1.76339e-06
1.76093e-06
1.76093e-06
1.76093e-06
1.76093e-06
1.76657e-06
1.76733e-06
1.76562e-06
1.76093e-06
1.76093e-06
1.76093e-06
1.76093e-06
1.76093e-06
1.76093e-06
1.76903e-06
1.77053e-06
1.76924e-06
1.76567e-06
1.76093e-06
1.76093e-06
1.76093e-06
1.76093e-06
1.76093e-06
1.76093e-06
1.76979e-06
1.76986e-06
1.76911e-06
1.76521e-06
1.76093e-06
1.76093e-06
1.76093e-06
1.76093e-06
1.76093e-06
1.76093e-06
1.76976e-06
1.76709e-06
1.76593e-06
1.76093e-06
1.76093e-06
1.76093e-06
1.76093e-06
1.76093e-06
1.76093e-06
1.76958e-06
1.77053e-06
1.76953e-06
1.76657e-06
1.76093e-06
1.76093e-06
1.76093e-06
1.76093e-06
1.77029e-06
1.76836e-06
1.7703e-06
1.76942e-06
1.76732e-06
1.76902e-06
1.76978e-06
1.7698e-06
1.76959e-06
1.76836e-06
1.77053e-06
1.77051e-06
1.76979e-06
1.76716e-06
1.77055e-06
1.7703e-06
1.7459e-06
1.74578e-06
1.7454e-06
1.7423e-06
1.74235e-06
1.74188e-06
1.74259e-06
1.7462e-06
1.74609e-06
1.74538e-06
1.74006e-06
1.7376e-06
1.7376e-06
1.7376e-06
1.7376e-06
1.74323e-06
1.744e-06
1.74229e-06
1.7376e-06
1.7376e-06
1.7376e-06
1.7376e-06
1.7376e-06
1.7376e-06
1.7457e-06
1.7472e-06
1.74591e-06
1.74234e-06
1.7376e-06
1.7376e-06
1.7376e-06
1.7376e-06
1.7376e-06
1.7376e-06
1.74646e-06
1.74653e-06
1.74579e-06
1.74188e-06
1.7376e-06
1.7376e-06
1.7376e-06
1.7376e-06
1.7376e-06
1.7376e-06
1.74642e-06
1.74376e-06
1.7426e-06
1.7376e-06
1.7376e-06
1.7376e-06
1.7376e-06
1.7376e-06
1.7376e-06
1.74625e-06
1.7472e-06
1.7462e-06
1.74324e-06
1.7376e-06
1.7376e-06
1.7376e-06
1.7376e-06
1.74696e-06
1.74503e-06
1.74697e-06
1.74609e-06
1.744e-06
1.7457e-06
1.74646e-06
1.74643e-06
1.74623e-06
1.74501e-06
1.74719e-06
1.74723e-06
1.74656e-06
1.74371e-06
1.74718e-06
1.74695e-06
1.72256e-06
1.72245e-06
1.72206e-06
1.71896e-06
1.71902e-06
1.71855e-06
1.71926e-06
1.72287e-06
1.72275e-06
1.72205e-06
1.71673e-06
1.71427e-06
1.71427e-06
1.71427e-06
1.71427e-06
1.7199e-06
1.72067e-06
1.71896e-06
1.71427e-06
1.71427e-06
1.71427e-06
1.71426e-06
1.71426e-06
1.71426e-06
1.72237e-06
1.72387e-06
1.72259e-06
1.71901e-06
1.71427e-06
1.71427e-06
1.71427e-06
1.71427e-06
1.71426e-06
1.71426e-06
1.72313e-06
1.7232e-06
1.72246e-06
1.71856e-06
1.71427e-06
1.71427e-06
1.71427e-06
1.71427e-06
1.71427e-06
1.71426e-06
1.72309e-06
1.72043e-06
1.71927e-06
1.71427e-06
1.71427e-06
1.71427e-06
1.71427e-06
1.71426e-06
1.71426e-06
1.72292e-06
1.72387e-06
1.72287e-06
1.71991e-06
1.71427e-06
1.71427e-06
1.71427e-06
1.71426e-06
1.72363e-06
1.72169e-06
1.72364e-06
1.72276e-06
1.72067e-06
1.72237e-06
1.72313e-06
1.72312e-06
1.7229e-06
1.72169e-06
1.72386e-06
1.72389e-06
1.72325e-06
1.72041e-06
1.72385e-06
1.72361e-06
1.69924e-06
1.69911e-06
1.69873e-06
1.69563e-06
1.69568e-06
1.69522e-06
1.69593e-06
1.69954e-06
1.69942e-06
1.69871e-06
1.6934e-06
1.69093e-06
1.69093e-06
1.69093e-06
1.69093e-06
1.69658e-06
1.69733e-06
1.69563e-06
1.69093e-06
1.69093e-06
1.69093e-06
1.69093e-06
1.69093e-06
1.69093e-06
1.69904e-06
1.70054e-06
1.69924e-06
1.69569e-06
1.69093e-06
1.69093e-06
1.69093e-06
1.69093e-06
1.69093e-06
1.69093e-06
1.69979e-06
1.69986e-06
1.69912e-06
1.69521e-06
1.69093e-06
1.69093e-06
1.69093e-06
1.69093e-06
1.69093e-06
1.69094e-06
1.69976e-06
1.69709e-06
1.69594e-06
1.69093e-06
1.69093e-06
1.69093e-06
1.69093e-06
1.69093e-06
1.69093e-06
1.69959e-06
1.70054e-06
1.69954e-06
1.69657e-06
1.69093e-06
1.69093e-06
1.69093e-06
1.69093e-06
1.7003e-06
1.69836e-06
1.70031e-06
1.69942e-06
1.69733e-06
1.69903e-06
1.69979e-06
1.69979e-06
1.69959e-06
1.69836e-06
1.70053e-06
1.70053e-06
1.69983e-06
1.69712e-06
1.70055e-06
1.7003e-06
1.67592e-06
1.67579e-06
1.6754e-06
1.6723e-06
1.67234e-06
1.67189e-06
1.6726e-06
1.67621e-06
1.67609e-06
1.67538e-06
1.67007e-06
1.6676e-06
1.6676e-06
1.6676e-06
1.6676e-06
1.67324e-06
1.674e-06
1.6723e-06
1.6676e-06
1.6676e-06
1.6676e-06
1.6676e-06
1.6676e-06
1.6676e-06
1.6757e-06
1.67721e-06
1.67591e-06
1.67234e-06
1.6676e-06
1.6676e-06
1.6676e-06
1.6676e-06
1.6676e-06
1.6676e-06
1.67646e-06
1.67653e-06
1.6758e-06
1.67189e-06
1.6676e-06
1.6676e-06
1.6676e-06
1.6676e-06
1.6676e-06
1.6676e-06
1.67643e-06
1.67376e-06
1.6726e-06
1.6676e-06
1.6676e-06
1.6676e-06
1.6676e-06
1.6676e-06
1.6676e-06
1.67625e-06
1.67721e-06
1.6762e-06
1.67323e-06
1.6676e-06
1.6676e-06
1.6676e-06
1.6676e-06
1.67697e-06
1.67503e-06
1.67697e-06
1.67609e-06
1.67399e-06
1.67569e-06
1.67645e-06
1.67646e-06
1.67626e-06
1.67503e-06
1.6772e-06
1.67719e-06
1.67646e-06
1.67382e-06
1.67723e-06
1.67697e-06
1.65259e-06
1.65247e-06
1.65207e-06
1.64897e-06
1.64901e-06
1.64855e-06
1.64927e-06
1.65288e-06
1.65276e-06
1.65205e-06
1.64674e-06
1.64427e-06
1.64427e-06
1.64427e-06
1.64427e-06
1.64991e-06
1.65067e-06
1.64897e-06
1.64427e-06
1.64427e-06
1.64427e-06
1.64427e-06
1.64427e-06
1.64427e-06
1.65237e-06
1.65388e-06
1.65258e-06
1.64902e-06
1.64427e-06
1.64427e-06
1.64427e-06
1.64427e-06
1.64427e-06
1.64427e-06
1.65313e-06
1.6532e-06
1.65246e-06
1.64855e-06
1.64427e-06
1.64427e-06
1.64427e-06
1.64427e-06
1.64427e-06
1.64427e-06
1.6531e-06
1.65043e-06
1.64927e-06
1.64427e-06
1.64427e-06
1.64427e-06
1.64427e-06
1.64427e-06
1.64427e-06
1.65292e-06
1.65388e-06
1.65288e-06
1.6499e-06
1.64427e-06
1.64427e-06
1.64427e-06
1.64427e-06
1.65363e-06
1.6517e-06
1.65364e-06
1.65276e-06
1.65066e-06
1.65237e-06
1.65313e-06
1.65313e-06
1.65292e-06
1.65169e-06
1.65387e-06
1.65387e-06
1.65316e-06
1.65047e-06
1.65389e-06
1.65364e-06
1.62925e-06
1.62913e-06
1.62874e-06
1.62564e-06
1.62568e-06
1.62522e-06
1.62594e-06
1.62955e-06
1.62943e-06
1.62872e-06
1.6234e-06
1.62094e-06
1.62094e-06
1.62094e-06
1.62094e-06
1.62658e-06
1.62734e-06
1.62564e-06
1.62094e-06
1.62094e-06
1.62094e-06
1.62094e-06
1.62094e-06
1.62094e-06
1.62904e-06
1.63054e-06
1.62925e-06
1.6257e-06
1.62094e-06
1.62094e-06
1.62094e-06
1.62094e-06
1.62094e-06
1.62094e-06
1.6298e-06
1.62987e-06
1.62913e-06
1.62523e-06
1.62094e-06
1.62094e-06
1.62094e-06
1.62094e-06
1.62094e-06
1.62094e-06
1.62977e-06
1.6271e-06
1.62593e-06
1.62094e-06
1.62094e-06
1.62094e-06
1.62094e-06
1.62094e-06
1.62094e-06
1.62959e-06
1.63055e-06
1.62954e-06
1.62658e-06
1.62094e-06
1.62094e-06
1.62094e-06
1.62094e-06
1.6303e-06
1.62837e-06
1.63031e-06
1.62943e-06
1.62733e-06
1.62904e-06
1.6298e-06
1.62978e-06
1.62959e-06
1.62836e-06
1.63054e-06
1.63055e-06
1.62987e-06
1.6271e-06
1.63054e-06
1.6303e-06
1.60591e-06
1.60579e-06
1.60541e-06
1.60231e-06
1.60236e-06
1.60189e-06
1.60261e-06
1.60621e-06
1.6061e-06
1.60539e-06
1.60007e-06
1.59761e-06
1.59761e-06
1.59761e-06
1.59761e-06
1.60325e-06
1.60401e-06
1.6023e-06
1.59761e-06
1.59761e-06
1.59761e-06
1.59761e-06
1.59761e-06
1.59761e-06
1.60571e-06
1.60721e-06
1.60589e-06
1.60236e-06
1.59761e-06
1.59761e-06
1.59761e-06
1.59761e-06
1.59761e-06
1.59761e-06
1.60647e-06
1.60654e-06
1.60575e-06
1.60193e-06
1.59761e-06
1.59761e-06
1.59761e-06
1.59761e-06
1.59761e-06
1.59761e-06
1.60644e-06
1.60377e-06
1.6026e-06
1.59761e-06
1.59761e-06
1.59761e-06
1.59761e-06
1.59761e-06
1.59761e-06
1.60626e-06
1.60722e-06
1.60621e-06
1.60325e-06
1.59761e-06
1.59761e-06
1.59761e-06
1.59761e-06
1.60697e-06
1.60504e-06
1.60698e-06
1.6061e-06
1.604e-06
1.60571e-06
1.60647e-06
1.60644e-06
1.60626e-06
1.60503e-06
1.60721e-06
1.60721e-06
1.60654e-06
1.60377e-06
1.60721e-06
1.60697e-06
1.58258e-06
1.58247e-06
1.58208e-06
1.57898e-06
1.57903e-06
1.57856e-06
1.57927e-06
1.58288e-06
1.58277e-06
1.58206e-06
1.57674e-06
1.57428e-06
1.57428e-06
1.57428e-06
1.57428e-06
1.57991e-06
1.58068e-06
1.57898e-06
1.57428e-06
1.57428e-06
1.57428e-06
1.57428e-06
1.57428e-06
1.57428e-06
1.58238e-06
1.58388e-06
1.58251e-06
1.57902e-06
1.57428e-06
1.57428e-06
1.57428e-06
1.57428e-06
1.57428e-06
1.57428e-06
1.58314e-06
1.58321e-06
1.5824e-06
1.57861e-06
1.57428e-06
1.57428e-06
1.57428e-06
1.57428e-06
1.57428e-06
1.57428e-06
1.58311e-06
1.58044e-06
1.57925e-06
1.57428e-06
1.57428e-06
1.57428e-06
1.57428e-06
1.57428e-06
1.57428e-06
1.58293e-06
1.58388e-06
1.58288e-06
1.57991e-06
1.57428e-06
1.57428e-06
1.57428e-06
1.57428e-06
1.58364e-06
1.58171e-06
1.58365e-06
1.58277e-06
1.58067e-06
1.58238e-06
1.58314e-06
1.58311e-06
1.58293e-06
1.5817e-06
1.58388e-06
1.58388e-06
1.58321e-06
1.58044e-06
1.58388e-06
1.58364e-06
1.55925e-06
1.55913e-06
1.55875e-06
1.55565e-06
1.5557e-06
1.55523e-06
1.55594e-06
1.55955e-06
1.55943e-06
1.55873e-06
1.55341e-06
1.55094e-06
1.55094e-06
1.55095e-06
1.55095e-06
1.55658e-06
1.55734e-06
1.55564e-06
1.55095e-06
1.55095e-06
1.55094e-06
1.55095e-06
1.55095e-06
1.55095e-06
1.55905e-06
1.56055e-06
1.5592e-06
1.55566e-06
1.55094e-06
1.55095e-06
1.55094e-06
1.55095e-06
1.55095e-06
1.55095e-06
1.55981e-06
1.55988e-06
1.55911e-06
1.55526e-06
1.55094e-06
1.55095e-06
1.55095e-06
1.55095e-06
1.55095e-06
1.55095e-06
1.55977e-06
1.55711e-06
1.55593e-06
1.55094e-06
1.55095e-06
1.55095e-06
1.55095e-06
1.55095e-06
1.55095e-06
1.5596e-06
1.56055e-06
1.55955e-06
1.55659e-06
1.55095e-06
1.55095e-06
1.55095e-06
1.55095e-06
1.56031e-06
1.55838e-06
1.56032e-06
1.55944e-06
1.55734e-06
1.55905e-06
1.55981e-06
1.55978e-06
1.55959e-06
1.55836e-06
1.56055e-06
1.56056e-06
1.55988e-06
1.55711e-06
1.56055e-06
1.56031e-06
1.53592e-06
1.5358e-06
1.53542e-06
1.53231e-06
1.53236e-06
1.5319e-06
1.53261e-06
1.53622e-06
1.5361e-06
1.5354e-06
1.53008e-06
1.52761e-06
1.52761e-06
1.52761e-06
1.52761e-06
1.53325e-06
1.53401e-06
1.53231e-06
1.52761e-06
1.52761e-06
1.52761e-06
1.52761e-06
1.52761e-06
1.52761e-06
1.53572e-06
1.53722e-06
1.53591e-06
1.53236e-06
1.52761e-06
1.52761e-06
1.52761e-06
1.52761e-06
1.52761e-06
1.52761e-06
1.53647e-06
1.53654e-06
1.5358e-06
1.53191e-06
1.52761e-06
1.52761e-06
1.52761e-06
1.52761e-06
1.52761e-06
1.52761e-06
1.53644e-06
1.53378e-06
1.53261e-06
1.52761e-06
1.52761e-06
1.52761e-06
1.52761e-06
1.52761e-06
1.52761e-06
1.53627e-06
1.53722e-06
1.53621e-06
1.53326e-06
1.52761e-06
1.52761e-06
1.52761e-06
1.52761e-06
1.53698e-06
1.53505e-06
1.53699e-06
1.5361e-06
1.53401e-06
1.53572e-06
1.53648e-06
1.53645e-06
1.53626e-06
1.53503e-06
1.53722e-06
1.53722e-06
1.53655e-06
1.53377e-06
1.53723e-06
1.53698e-06
1.51259e-06
1.51247e-06
1.51208e-06
1.50898e-06
1.50903e-06
1.50857e-06
1.50928e-06
1.51289e-06
1.51277e-06
1.51207e-06
1.50675e-06
1.50428e-06
1.50428e-06
1.50428e-06
1.50428e-06
1.50992e-06
1.51068e-06
1.50898e-06
1.50428e-06
1.50428e-06
1.50428e-06
1.50428e-06
1.50428e-06
1.50428e-06
1.51238e-06
1.51389e-06
1.51258e-06
1.50903e-06
1.50428e-06
1.50428e-06
1.50428e-06
1.50428e-06
1.50428e-06
1.50428e-06
1.51314e-06
1.51321e-06
1.51247e-06
1.50857e-06
1.50428e-06
1.50428e-06
1.50428e-06
1.50428e-06
1.50428e-06
1.50428e-06
1.51311e-06
1.51044e-06
1.50928e-06
1.50428e-06
1.50428e-06
1.50428e-06
1.50428e-06
1.50428e-06
1.50428e-06
1.51293e-06
1.51389e-06
1.51288e-06
1.50992e-06
1.50428e-06
1.50428e-06
1.50428e-06
1.50428e-06
1.51365e-06
1.51171e-06
1.51365e-06
1.51277e-06