/*--------------------------------*- C++ -*----------------------------------*\
| =========                 |                                                 |
| \\      /  F ield         | OpenFOAM: The Open Source CFD Toolbox           |
|  \\    /   O peration     | Version:  v2012                                 |
|   \\  /    A nd           | Website:  www.openfoam.com                      |
|    \\/     M anipulation  |                                                 |
\*---------------------------------------------------------------------------*/
FoamFile
{
    version     2.0;
    format      ascii;
    class       volScalarField;
    location    "0.105";
    object      p;
}
// * * * * * * * * * * * * * * * * * * * * * * * * * * * * * * * * * * * * * //

dimensions      [0 2 -2 0 0 0 0];


internalField   nonuniform List<scalar> 
244288
(
2.22288e-06
2.2243e-06
2.22434e-06
2.22386e-06
2.22349e-06
2.22394e-06
2.22437e-06
2.2243e-06
2.22446e-06
2.2245e-06
2.22421e-06
2.22402e-06
2.22426e-06
2.22453e-06
2.22443e-06
2.22434e-06
2.2245e-06
2.22429e-06
2.22392e-06
2.22376e-06
2.22396e-06
2.22434e-06
2.22451e-06
2.22433e-06
2.22386e-06
2.22421e-06
2.22392e-06
2.2235e-06
2.22334e-06
2.22355e-06
2.22398e-06
2.22422e-06
2.22377e-06
2.22288e-06
2.22349e-06
2.22402e-06
2.22376e-06
2.22334e-06
2.22317e-06
2.22338e-06
2.22381e-06
2.22402e-06
2.22336e-06
2.22394e-06
2.22426e-06
2.22396e-06
2.22355e-06
2.22338e-06
2.22359e-06
2.22402e-06
2.22427e-06
2.22386e-06
2.22437e-06
2.22453e-06
2.22434e-06
2.22398e-06
2.22381e-06
2.22402e-06
2.22439e-06
2.22453e-06
2.22437e-06
2.22443e-06
2.22451e-06
2.22422e-06
2.22402e-06
2.22427e-06
2.22453e-06
2.2244e-06
2.22433e-06
2.22377e-06
2.22337e-06
2.22386e-06
2.22437e-06
2.18937e-06
2.18786e-06
2.18883e-06
2.187e-06
2.18672e-06
2.1866e-06
2.18673e-06
2.18944e-06
2.18933e-06
2.18882e-06
2.1862e-06
2.18329e-06
2.18317e-06
2.18317e-06
2.1833e-06
2.18781e-06
2.18725e-06
2.187e-06
2.18329e-06
2.18312e-06
2.18311e-06
2.18311e-06
2.18312e-06
2.18329e-06
2.18811e-06
2.19e-06
2.18935e-06
2.18672e-06
2.18317e-06
2.18311e-06
2.18314e-06
2.18314e-06
2.18311e-06
2.18318e-06
2.18772e-06
2.18876e-06
2.18786e-06
2.1866e-06
2.18317e-06
2.18311e-06
2.18314e-06
2.18314e-06
2.18311e-06
2.18318e-06
2.18765e-06
2.1863e-06
2.18673e-06
2.18329e-06
2.18312e-06
2.18311e-06
2.18311e-06
2.18312e-06
2.1833e-06
2.18786e-06
2.18781e-06
2.18944e-06
2.18781e-06
2.18329e-06
2.18317e-06
2.18318e-06
2.1833e-06
2.18853e-06
2.18793e-06
2.19008e-06
2.18932e-06
2.18725e-06
2.18811e-06
2.18772e-06
2.18764e-06
2.18786e-06
2.18793e-06
2.19053e-06
2.19e-06
2.18876e-06
2.1863e-06
2.18781e-06
2.19008e-06
2.16833e-06
2.16811e-06
2.16814e-06
2.16544e-06
2.16544e-06
2.16536e-06
2.16551e-06
2.16892e-06
2.1688e-06
2.16814e-06
2.16426e-06
2.1611e-06
2.16074e-06
2.16073e-06
2.16107e-06
2.16685e-06
2.16649e-06
2.16544e-06
2.1611e-06
2.16004e-06
2.16001e-06
2.16001e-06
2.16002e-06
2.16111e-06
2.16812e-06
2.16967e-06
2.16827e-06
2.16546e-06
2.16074e-06
2.16001e-06
2.16005e-06
2.16004e-06
2.16e-06
2.16072e-06
2.16813e-06
2.16874e-06
2.16805e-06
2.16536e-06
2.16073e-06
2.16001e-06
2.16004e-06
2.16004e-06
2.16001e-06
2.16074e-06
2.16797e-06
2.16571e-06
2.1655e-06
2.16106e-06
2.16002e-06
2.16e-06
2.16e-06
2.16002e-06
2.16108e-06
2.16825e-06
2.16947e-06
2.16893e-06
2.16684e-06
2.1611e-06
2.16073e-06
2.16072e-06
2.1611e-06
2.16874e-06
2.16737e-06
2.16942e-06
2.1688e-06
2.16648e-06
2.16811e-06
2.16812e-06
2.16797e-06
2.16826e-06
2.1674e-06
2.16999e-06
2.16966e-06
2.16869e-06
2.16575e-06
2.16948e-06
2.16942e-06
2.1458e-06
2.14563e-06
2.1456e-06
2.14264e-06
2.14269e-06
2.14245e-06
2.14289e-06
2.14638e-06
2.14631e-06
2.14561e-06
2.14091e-06
2.13815e-06
2.13801e-06
2.138e-06
2.13818e-06
2.14385e-06
2.14413e-06
2.14263e-06
2.13815e-06
2.13778e-06
2.13775e-06
2.13775e-06
2.13778e-06
2.13816e-06
2.14567e-06
2.14719e-06
2.14577e-06
2.1427e-06
2.138e-06
2.13775e-06
2.13774e-06
2.13774e-06
2.13775e-06
2.13801e-06
2.14605e-06
2.14629e-06
2.14561e-06
2.14245e-06
2.138e-06
2.13775e-06
2.13774e-06
2.13774e-06
2.13775e-06
2.13801e-06
2.14594e-06
2.14346e-06
2.14288e-06
2.13818e-06
2.13778e-06
2.13775e-06
2.13775e-06
2.13778e-06
2.13818e-06
2.14603e-06
2.14701e-06
2.14638e-06
2.14385e-06
2.13816e-06
2.13802e-06
2.13801e-06
2.13816e-06
2.14654e-06
2.14496e-06
2.14703e-06
2.14632e-06
2.14414e-06
2.14567e-06
2.14606e-06
2.14595e-06
2.14603e-06
2.14496e-06
2.14735e-06
2.14718e-06
2.14628e-06
2.14348e-06
2.14702e-06
2.14701e-06
2.12296e-06
2.12281e-06
2.12254e-06
2.1195e-06
2.11955e-06
2.11918e-06
2.11978e-06
2.12329e-06
2.12321e-06
2.12253e-06
2.11746e-06
2.11492e-06
2.11488e-06
2.11488e-06
2.11493e-06
2.12048e-06
2.12112e-06
2.1195e-06
2.11492e-06
2.11483e-06
2.11482e-06
2.11482e-06
2.11483e-06
2.11492e-06
2.12271e-06
2.12426e-06
2.12297e-06
2.11953e-06
2.11488e-06
2.11482e-06
2.11482e-06
2.11482e-06
2.11482e-06
2.11488e-06
2.12335e-06
2.12355e-06
2.12282e-06
2.11917e-06
2.11488e-06
2.11482e-06
2.11482e-06
2.11482e-06
2.11482e-06
2.11488e-06
2.1233e-06
2.12078e-06
2.11979e-06
2.11493e-06
2.11483e-06
2.11482e-06
2.11482e-06
2.11483e-06
2.11493e-06
2.12319e-06
2.12423e-06
2.12329e-06
2.12048e-06
2.11492e-06
2.11489e-06
2.11488e-06
2.11492e-06
2.12378e-06
2.12204e-06
2.12404e-06
2.12322e-06
2.12112e-06
2.12271e-06
2.12336e-06
2.12331e-06
2.12319e-06
2.12204e-06
2.12429e-06
2.12426e-06
2.12355e-06
2.12079e-06
2.12424e-06
2.12404e-06
2.09994e-06
2.09981e-06
2.09944e-06
2.0964e-06
2.09643e-06
2.09601e-06
2.09668e-06
2.1002e-06
2.10012e-06
2.09944e-06
2.09427e-06
2.09177e-06
2.09177e-06
2.09177e-06
2.09178e-06
2.09727e-06
2.09803e-06
2.09639e-06
2.09177e-06
2.09175e-06
2.09175e-06
2.09175e-06
2.09175e-06
2.09177e-06
2.09963e-06
2.10119e-06
2.09997e-06
2.09639e-06
2.09177e-06
2.09175e-06
2.09175e-06
2.09175e-06
2.09175e-06
2.09177e-06
2.10035e-06
2.10055e-06
2.09984e-06
2.09604e-06
2.09177e-06
2.09175e-06
2.09175e-06
2.09175e-06
2.09175e-06
2.09177e-06
2.10032e-06
2.09781e-06
2.09668e-06
2.09178e-06
2.09175e-06
2.09175e-06
2.09175e-06
2.09175e-06
2.09178e-06
2.10015e-06
2.10122e-06
2.10019e-06
2.09728e-06
2.09177e-06
2.09177e-06
2.09177e-06
2.09178e-06
2.1008e-06
2.09899e-06
2.10097e-06
2.10012e-06
2.09803e-06
2.09963e-06
2.10035e-06
2.10032e-06
2.10015e-06
2.09898e-06
2.1012e-06
2.10119e-06
2.10054e-06
2.0978e-06
2.10121e-06
2.10096e-06
2.07684e-06
2.07672e-06
2.07634e-06
2.07328e-06
2.07332e-06
2.07287e-06
2.07357e-06
2.07708e-06
2.07701e-06
2.07633e-06
2.07114e-06
2.06866e-06
2.06865e-06
2.06865e-06
2.06866e-06
2.07414e-06
2.07493e-06
2.07329e-06
2.06866e-06
2.06865e-06
2.06865e-06
2.06865e-06
2.06865e-06
2.06865e-06
2.07652e-06
2.07808e-06
2.07691e-06
2.07327e-06
2.06865e-06
2.06865e-06
2.06865e-06
2.06865e-06
2.06865e-06
2.06865e-06
2.07726e-06
2.07746e-06
2.07674e-06
2.07291e-06
2.06866e-06
2.06865e-06
2.06865e-06
2.06865e-06
2.06865e-06
2.06865e-06
2.07724e-06
2.07473e-06
2.07356e-06
2.06866e-06
2.06865e-06
2.06865e-06
2.06865e-06
2.06865e-06
2.06865e-06
2.07706e-06
2.07813e-06
2.07708e-06
2.07414e-06
2.06865e-06
2.06865e-06
2.06865e-06
2.06865e-06
2.07773e-06
2.0759e-06
2.07786e-06
2.077e-06
2.07492e-06
2.07653e-06
2.07726e-06
2.07724e-06
2.07705e-06
2.07589e-06
2.07809e-06
2.07809e-06
2.07745e-06
2.07473e-06
2.07813e-06
2.07786e-06
2.05374e-06
2.05362e-06
2.05323e-06
2.05017e-06
2.05021e-06
2.04976e-06
2.05045e-06
2.05398e-06
2.0539e-06
2.05322e-06
2.04801e-06
2.04554e-06
2.04554e-06
2.04554e-06
2.04554e-06
2.05103e-06
2.05181e-06
2.05016e-06
2.04554e-06
2.04554e-06
2.04554e-06
2.04554e-06
2.04554e-06
2.04554e-06
2.05342e-06
2.05497e-06
2.05376e-06
2.05017e-06
2.04554e-06
2.04554e-06
2.04554e-06
2.04554e-06
2.04554e-06
2.04554e-06
2.05416e-06
2.05435e-06
2.05363e-06
2.04973e-06
2.04554e-06
2.04554e-06
2.04554e-06
2.04554e-06
2.04554e-06
2.04554e-06
2.05413e-06
2.05162e-06
2.05047e-06
2.04554e-06
2.04554e-06
2.04554e-06
2.04554e-06
2.04554e-06
2.04554e-06
2.05395e-06
2.05502e-06
2.05398e-06
2.05102e-06
2.04554e-06
2.04554e-06
2.04554e-06
2.04554e-06
2.05462e-06
2.05279e-06
2.05475e-06
2.0539e-06
2.05182e-06
2.05342e-06
2.05416e-06
2.05414e-06
2.05395e-06
2.05279e-06
2.05498e-06
2.05498e-06
2.05436e-06
2.05163e-06
2.05502e-06
2.05475e-06
2.03063e-06
2.03051e-06
2.03012e-06
2.02706e-06
2.02709e-06
2.02664e-06
2.02734e-06
2.03087e-06
2.03079e-06
2.0301e-06
2.0249e-06
2.02243e-06
2.02243e-06
2.02243e-06
2.02243e-06
2.02791e-06
2.02871e-06
2.02705e-06
2.02243e-06
2.02243e-06
2.02243e-06
2.02243e-06
2.02243e-06
2.02243e-06
2.03031e-06
2.03186e-06
2.03058e-06
2.0271e-06
2.02243e-06
2.02243e-06
2.02243e-06
2.02243e-06
2.02243e-06
2.02243e-06
2.03105e-06
2.03125e-06
2.03045e-06
2.02669e-06
2.02243e-06
2.02243e-06
2.02243e-06
2.02243e-06
2.02243e-06
2.02243e-06
2.03103e-06
2.02852e-06
2.02734e-06
2.02243e-06
2.02243e-06
2.02243e-06
2.02243e-06
2.02243e-06
2.02243e-06
2.03084e-06
2.03191e-06
2.03087e-06
2.02791e-06
2.02243e-06
2.02243e-06
2.02243e-06
2.02243e-06
2.03152e-06
2.02969e-06
2.03164e-06
2.03079e-06
2.0287e-06
2.03031e-06
2.03105e-06
2.03103e-06
2.03084e-06
2.02968e-06
2.03187e-06
2.03187e-06
2.03125e-06
2.02852e-06
2.03192e-06
2.03163e-06
2.00752e-06
2.0074e-06
2.00701e-06
2.00395e-06
2.00399e-06
2.00353e-06
2.00423e-06
2.00776e-06
2.00768e-06
2.00699e-06
2.00179e-06
1.99932e-06
1.99932e-06
1.99932e-06
1.99932e-06
2.0048e-06
2.0056e-06
2.00394e-06
1.99932e-06
1.99932e-06
1.99932e-06
1.99932e-06
1.99932e-06
1.99932e-06
2.0072e-06
2.00876e-06
2.00746e-06
2.00397e-06
1.99932e-06
1.99932e-06
1.99932e-06
1.99932e-06
1.99932e-06
1.99932e-06
2.00794e-06
2.00814e-06
2.00732e-06
2.00357e-06
1.99932e-06
1.99932e-06
1.99932e-06
1.99932e-06
1.99932e-06
1.99932e-06
2.00792e-06
2.00541e-06
2.00422e-06
1.99932e-06
1.99932e-06
1.99932e-06
1.99932e-06
1.99932e-06
1.99932e-06
2.00773e-06
2.0088e-06
2.00776e-06
2.00481e-06
1.99932e-06
1.99932e-06
1.99932e-06
1.99932e-06
2.00841e-06
2.00658e-06
2.00854e-06
2.00768e-06
2.00559e-06
2.0072e-06
2.00794e-06
2.00792e-06
2.00773e-06
2.00657e-06
2.00876e-06
2.00876e-06
2.00814e-06
2.00541e-06
2.0088e-06
2.00853e-06
1.98441e-06
1.98429e-06
1.9839e-06
1.98084e-06
1.98087e-06
1.98042e-06
1.98112e-06
1.98465e-06
1.98457e-06
1.98388e-06
1.97868e-06
1.97621e-06
1.97621e-06
1.97621e-06
1.97621e-06
1.98169e-06
1.98249e-06
1.98083e-06
1.97621e-06
1.97621e-06
1.97621e-06
1.97621e-06
1.97621e-06
1.97621e-06
1.98409e-06
1.98565e-06
1.98436e-06
1.98087e-06
1.97621e-06
1.97621e-06
1.97621e-06
1.97621e-06
1.97621e-06
1.97621e-06
1.98483e-06
1.98503e-06
1.98425e-06
1.98046e-06
1.97621e-06
1.97621e-06
1.97621e-06
1.97621e-06
1.97621e-06
1.97621e-06
1.98481e-06
1.9823e-06
1.98112e-06
1.97621e-06
1.97621e-06
1.97621e-06
1.97621e-06
1.97621e-06
1.97621e-06
1.98462e-06
1.98569e-06
1.98464e-06
1.9817e-06
1.97621e-06
1.97621e-06
1.97621e-06
1.97621e-06
1.9853e-06
1.98347e-06
1.98543e-06
1.98457e-06
1.98248e-06
1.98409e-06
1.98483e-06
1.98481e-06
1.98462e-06
1.98346e-06
1.98565e-06
1.98565e-06
1.98503e-06
1.9823e-06
1.9857e-06
1.98542e-06
1.9613e-06
1.96117e-06
1.96079e-06
1.95773e-06
1.95777e-06
1.95731e-06
1.95801e-06
1.96154e-06
1.96146e-06
1.96078e-06
1.95557e-06
1.9531e-06
1.9531e-06
1.9531e-06
1.9531e-06
1.95858e-06
1.95938e-06
1.95773e-06
1.9531e-06
1.9531e-06
1.9531e-06
1.9531e-06
1.9531e-06
1.9531e-06
1.96098e-06
1.96254e-06
1.9613e-06
1.95776e-06
1.9531e-06
1.9531e-06
1.9531e-06
1.9531e-06
1.9531e-06
1.9531e-06
1.96172e-06
1.96192e-06
1.96117e-06
1.95731e-06
1.9531e-06
1.9531e-06
1.9531e-06
1.9531e-06
1.9531e-06
1.9531e-06
1.9617e-06
1.95919e-06
1.95801e-06
1.9531e-06
1.9531e-06
1.9531e-06
1.9531e-06
1.9531e-06
1.9531e-06
1.96151e-06
1.96258e-06
1.96153e-06
1.95859e-06
1.9531e-06
1.9531e-06
1.9531e-06
1.9531e-06
1.96219e-06
1.96036e-06
1.96231e-06
1.96146e-06
1.95937e-06
1.96098e-06
1.96172e-06
1.9617e-06
1.96151e-06
1.96034e-06
1.96254e-06
1.96254e-06
1.96192e-06
1.95919e-06
1.96259e-06
1.96231e-06
1.93819e-06
1.93807e-06
1.93768e-06
1.93462e-06
1.93465e-06
1.9342e-06
1.9349e-06
1.93843e-06
1.93835e-06
1.93767e-06
1.93246e-06
1.92999e-06
1.92999e-06
1.92999e-06
1.92999e-06
1.93547e-06
1.93626e-06
1.93462e-06
1.92999e-06
1.92999e-06
1.92999e-06
1.92999e-06
1.92999e-06
1.92999e-06
1.93787e-06
1.93942e-06
1.93821e-06
1.93462e-06
1.92999e-06
1.92999e-06
1.92999e-06
1.92999e-06
1.92999e-06
1.92999e-06
1.93861e-06
1.9388e-06
1.93806e-06
1.93423e-06
1.92999e-06
1.92999e-06
1.92999e-06
1.92999e-06
1.92999e-06
1.92999e-06
1.93859e-06
1.93608e-06
1.93489e-06
1.92999e-06
1.92999e-06
1.92999e-06
1.92999e-06
1.92999e-06
1.92999e-06
1.9384e-06
1.93947e-06
1.93841e-06
1.93547e-06
1.92999e-06
1.92999e-06
1.92999e-06
1.92999e-06
1.93908e-06
1.93725e-06
1.9392e-06
1.93834e-06
1.93626e-06
1.93787e-06
1.93861e-06
1.93859e-06
1.9384e-06
1.93723e-06
1.93943e-06
1.93943e-06
1.9388e-06
1.93607e-06
1.93947e-06
1.93919e-06
1.91508e-06
1.91496e-06
1.91457e-06
1.91151e-06
1.91154e-06
1.91109e-06
1.91179e-06
1.91532e-06
1.91524e-06
1.91456e-06
1.90936e-06
1.90688e-06
1.90688e-06
1.90688e-06
1.90688e-06
1.91236e-06
1.91315e-06
1.91151e-06
1.90687e-06
1.90688e-06
1.90688e-06
1.90688e-06
1.90688e-06
1.90688e-06
1.91476e-06
1.91631e-06
1.91517e-06
1.91149e-06
1.90687e-06
1.90688e-06
1.90688e-06
1.90688e-06
1.90688e-06
1.90688e-06
1.9155e-06
1.91569e-06
1.91494e-06
1.91115e-06
1.90688e-06
1.90688e-06
1.90688e-06
1.90688e-06
1.90688e-06
1.90688e-06
1.91548e-06
1.91297e-06
1.91179e-06
1.90688e-06
1.90688e-06
1.90688e-06
1.90688e-06
1.90688e-06
1.90688e-06
1.91529e-06
1.91636e-06
1.91531e-06
1.91236e-06
1.90687e-06
1.90687e-06
1.90688e-06
1.90688e-06
1.91597e-06
1.91413e-06
1.91609e-06
1.91523e-06
1.91315e-06
1.91476e-06
1.9155e-06
1.91548e-06
1.91529e-06
1.91412e-06
1.91632e-06
1.91632e-06
1.91569e-06
1.91296e-06
1.91637e-06
1.91609e-06
1.89196e-06
1.89184e-06
1.89146e-06
1.8884e-06
1.88843e-06
1.88798e-06
1.88868e-06
1.89221e-06
1.89212e-06
1.89145e-06
1.88624e-06
1.88377e-06
1.88377e-06
1.88377e-06
1.88377e-06
1.88925e-06
1.89004e-06
1.8884e-06
1.88376e-06
1.88376e-06
1.88377e-06
1.88377e-06
1.88377e-06
1.88377e-06
1.89165e-06
1.8932e-06
1.89202e-06
1.88839e-06
1.88376e-06
1.88377e-06
1.88377e-06
1.88377e-06
1.88377e-06
1.88377e-06
1.89239e-06
1.89258e-06
1.8919e-06
1.88801e-06
1.88377e-06
1.88377e-06
1.88377e-06
1.88377e-06
1.88377e-06
1.88377e-06
1.89237e-06
1.88985e-06
1.88869e-06
1.88377e-06
1.88377e-06
1.88376e-06
1.88377e-06
1.88377e-06
1.88377e-06
1.89218e-06
1.89325e-06
1.8922e-06
1.88924e-06
1.88377e-06
1.88376e-06
1.88376e-06
1.88376e-06
1.89285e-06
1.89102e-06
1.89298e-06
1.89212e-06
1.89004e-06
1.89165e-06
1.89239e-06
1.89237e-06
1.89218e-06
1.89101e-06
1.89321e-06
1.8932e-06
1.89258e-06
1.88985e-06
1.89326e-06
1.89297e-06
1.86886e-06
1.86874e-06
1.86834e-06
1.86528e-06
1.86532e-06
1.86487e-06
1.86557e-06
1.86909e-06
1.86901e-06
1.86833e-06
1.86313e-06
1.86065e-06
1.86065e-06
1.86065e-06
1.86065e-06
1.86613e-06
1.86693e-06
1.86528e-06
1.86065e-06
1.86065e-06
1.86065e-06
1.86065e-06
1.86065e-06
1.86065e-06
1.86853e-06
1.87009e-06
1.86885e-06
1.86531e-06
1.86065e-06
1.86065e-06
1.86065e-06
1.86065e-06
1.86065e-06
1.86065e-06
1.86927e-06
1.86947e-06
1.86871e-06
1.86488e-06
1.86065e-06
1.86065e-06
1.86065e-06
1.86065e-06
1.86065e-06
1.86065e-06
1.86925e-06
1.86674e-06
1.86556e-06
1.86065e-06
1.86065e-06
1.86065e-06
1.86065e-06
1.86065e-06
1.86065e-06
1.86907e-06
1.87014e-06
1.86909e-06
1.86613e-06
1.86065e-06
1.86065e-06
1.86065e-06
1.86065e-06
1.86974e-06
1.86791e-06
1.86987e-06
1.86901e-06
1.86693e-06
1.86853e-06
1.86928e-06
1.86925e-06
1.86906e-06
1.8679e-06
1.8701e-06
1.87009e-06
1.86947e-06
1.86674e-06
1.87014e-06
1.86987e-06
1.84574e-06
1.84562e-06
1.84523e-06
1.84217e-06
1.84221e-06
1.84175e-06
1.84245e-06
1.84598e-06
1.8459e-06
1.84521e-06
1.84001e-06
1.83754e-06
1.83754e-06
1.83754e-06
1.83754e-06
1.84302e-06
1.84382e-06
1.84216e-06
1.83754e-06
1.83754e-06
1.83754e-06
1.83754e-06
1.83754e-06
1.83754e-06
1.84542e-06
1.84698e-06
1.84575e-06
1.84219e-06
1.83754e-06
1.83754e-06
1.83754e-06
1.83754e-06
1.83754e-06
1.83754e-06
1.84616e-06
1.84636e-06
1.84563e-06
1.84176e-06
1.83754e-06
1.83754e-06
1.83754e-06
1.83754e-06
1.83754e-06
1.83754e-06
1.84614e-06
1.84363e-06
1.84245e-06
1.83754e-06
1.83754e-06
1.83754e-06
1.83754e-06
1.83754e-06
1.83754e-06
1.84595e-06
1.84702e-06
1.84598e-06
1.84302e-06
1.83754e-06
1.83754e-06
1.83754e-06
1.83754e-06
1.84663e-06
1.8448e-06
1.84675e-06
1.8459e-06
1.84381e-06
1.84542e-06
1.84616e-06
1.84614e-06
1.84595e-06
1.84479e-06
1.84698e-06
1.84698e-06
1.84636e-06
1.84361e-06
1.84703e-06
1.84675e-06
1.82263e-06
1.8225e-06
1.82212e-06
1.81906e-06
1.8191e-06
1.81864e-06
1.81934e-06
1.82287e-06
1.82279e-06
1.8221e-06
1.8169e-06
1.81443e-06
1.81443e-06
1.81443e-06
1.81443e-06
1.81991e-06
1.8207e-06
1.81905e-06
1.81443e-06
1.81443e-06
1.81443e-06
1.81443e-06
1.81443e-06
1.81443e-06
1.82231e-06
1.82386e-06
1.82263e-06
1.81909e-06
1.81443e-06
1.81443e-06
1.81443e-06
1.81443e-06
1.81443e-06
1.81443e-06
1.82305e-06
1.82325e-06
1.82252e-06
1.81864e-06
1.81443e-06
1.81443e-06
1.81443e-06
1.81443e-06
1.81443e-06
1.81443e-06
1.82303e-06
1.82052e-06
1.81934e-06
1.81443e-06
1.81443e-06
1.81443e-06
1.81443e-06
1.81443e-06
1.81443e-06
1.82284e-06
1.82391e-06
1.82287e-06
1.81991e-06
1.81443e-06
1.81443e-06
1.81443e-06
1.81443e-06
1.82352e-06
1.82169e-06
1.82364e-06
1.82279e-06
1.8207e-06
1.82231e-06
1.82305e-06
1.82302e-06
1.82282e-06
1.82167e-06
1.82387e-06
1.82389e-06
1.82329e-06
1.82047e-06
1.82389e-06
1.82363e-06
1.79952e-06
1.7994e-06
1.79901e-06
1.79595e-06
1.79598e-06
1.79553e-06
1.79623e-06
1.79976e-06
1.79968e-06
1.79899e-06
1.79379e-06
1.79132e-06
1.79132e-06
1.79132e-06
1.79132e-06
1.7968e-06
1.79759e-06
1.79594e-06
1.79132e-06
1.79132e-06
1.79132e-06
1.79132e-06
1.79132e-06
1.79132e-06
1.7992e-06
1.80075e-06
1.7995e-06
1.79599e-06
1.79132e-06
1.79132e-06
1.79132e-06
1.79132e-06
1.79132e-06
1.79132e-06
1.79994e-06
1.80013e-06
1.79937e-06
1.79554e-06
1.79132e-06
1.79132e-06
1.79132e-06
1.79132e-06
1.79132e-06
1.79132e-06
1.79992e-06
1.7974e-06
1.79623e-06
1.79132e-06
1.79132e-06
1.79132e-06
1.79132e-06
1.79132e-06
1.79132e-06
1.79973e-06
1.8008e-06
1.79976e-06
1.7968e-06
1.79132e-06
1.79132e-06
1.79132e-06
1.79132e-06
1.80041e-06
1.79857e-06
1.80053e-06
1.79968e-06
1.7976e-06
1.7992e-06
1.79994e-06
1.79993e-06
1.79972e-06
1.79856e-06
1.80075e-06
1.80077e-06
1.80019e-06
1.79739e-06
1.80078e-06
1.80051e-06
1.77641e-06
1.77628e-06
1.7759e-06
1.77283e-06
1.77287e-06
1.77242e-06
1.77312e-06
1.77665e-06
1.77656e-06
1.77588e-06
1.77068e-06
1.76821e-06
1.76821e-06
1.76821e-06
1.76821e-06
1.77369e-06
1.77448e-06
1.77283e-06
1.76821e-06
1.76821e-06
1.76821e-06
1.76821e-06
1.76821e-06
1.76821e-06
1.77609e-06
1.77764e-06
1.77641e-06
1.77287e-06
1.76821e-06
1.76821e-06
1.76821e-06
1.76821e-06
1.76821e-06
1.76821e-06
1.77683e-06
1.77702e-06
1.77627e-06
1.77242e-06
1.76821e-06
1.76821e-06
1.76821e-06
1.76821e-06
1.76821e-06
1.76821e-06
1.77681e-06
1.77429e-06
1.77312e-06
1.76821e-06
1.7682e-06
1.76821e-06
1.76821e-06
1.76821e-06
1.76821e-06
1.77662e-06
1.77769e-06
1.77664e-06
1.77369e-06
1.76821e-06
1.76821e-06
1.7682e-06
1.7682e-06
1.7773e-06
1.77546e-06
1.77742e-06
1.77656e-06
1.77448e-06
1.77608e-06
1.77682e-06
1.77683e-06
1.77662e-06
1.77545e-06
1.77765e-06
1.77765e-06
1.77698e-06
1.77433e-06
1.7777e-06
1.77743e-06
1.75329e-06
1.75317e-06
1.75278e-06
1.74972e-06
1.74977e-06
1.74931e-06
1.75001e-06
1.75353e-06
1.75345e-06
1.75277e-06
1.74756e-06
1.7451e-06
1.7451e-06
1.7451e-06
1.7451e-06
1.75058e-06
1.75137e-06
1.74972e-06
1.74509e-06
1.7451e-06
1.7451e-06
1.7451e-06
1.7451e-06
1.7451e-06
1.75298e-06
1.75453e-06
1.7533e-06
1.74975e-06
1.74509e-06
1.7451e-06
1.7451e-06
1.7451e-06
1.7451e-06
1.7451e-06
1.75372e-06
1.75391e-06
1.75316e-06
1.74931e-06
1.74509e-06
1.7451e-06
1.7451e-06
1.7451e-06
1.7451e-06
1.7451e-06
1.75369e-06
1.75118e-06
1.75001e-06
1.74509e-06
1.74509e-06
1.7451e-06
1.7451e-06
1.7451e-06
1.74509e-06
1.75351e-06
1.75458e-06
1.75353e-06
1.75058e-06
1.74509e-06
1.7451e-06
1.7451e-06
1.74509e-06
1.75419e-06
1.75235e-06
1.75431e-06
1.75345e-06
1.75136e-06
1.75297e-06
1.7537e-06
1.75373e-06
1.75351e-06
1.75235e-06
1.75453e-06
1.75451e-06
1.75385e-06
1.75125e-06
1.75459e-06
1.75431e-06
1.73018e-06
1.73006e-06
1.72967e-06
1.72661e-06
1.72665e-06
1.7262e-06
1.7269e-06
1.73042e-06
1.73034e-06
1.72966e-06
1.72446e-06
1.72198e-06
1.72198e-06
1.72198e-06
1.72198e-06
1.72747e-06
1.72826e-06
1.72661e-06
1.72199e-06
1.72198e-06
1.72198e-06
1.72198e-06
1.72198e-06
1.72198e-06
1.72987e-06
1.73142e-06
1.73019e-06
1.72665e-06
1.72199e-06
1.72198e-06
1.72198e-06
1.72198e-06
1.72198e-06
1.72198e-06
1.73061e-06
1.7308e-06
1.73007e-06
1.7262e-06
1.72199e-06
1.72199e-06
1.72199e-06
1.72198e-06
1.72198e-06
1.72198e-06
1.73058e-06
1.72807e-06
1.7269e-06
1.72199e-06
1.72199e-06
1.72199e-06
1.72199e-06
1.72198e-06
1.72198e-06
1.7304e-06
1.73147e-06
1.73042e-06
1.72747e-06
1.72198e-06
1.72199e-06
1.72199e-06
1.72198e-06
1.73107e-06
1.72924e-06
1.7312e-06
1.73034e-06
1.72826e-06
1.72987e-06
1.73061e-06
1.73058e-06
1.73037e-06
1.72923e-06
1.73142e-06
1.73144e-06
1.73084e-06
1.72803e-06
1.73144e-06
1.73118e-06
1.70707e-06
1.70695e-06
1.70656e-06
1.7035e-06
1.70355e-06
1.70309e-06
1.70379e-06
1.70731e-06
1.70723e-06
1.70655e-06
1.70135e-06
1.69888e-06
1.69888e-06
1.69888e-06
1.69887e-06
1.70435e-06
1.70515e-06
1.7035e-06
1.69887e-06
1.69887e-06
1.69887e-06
1.69887e-06
1.69887e-06
1.69887e-06
1.70675e-06
1.70831e-06
1.70708e-06
1.70353e-06
1.69887e-06
1.69887e-06
1.69887e-06
1.69887e-06
1.69887e-06
1.69887e-06
1.7075e-06
1.70769e-06
1.70696e-06
1.70309e-06
1.69887e-06
1.69887e-06
1.69887e-06
1.69887e-06
1.69887e-06
1.69887e-06
1.70747e-06
1.70496e-06
1.70379e-06
1.69888e-06
1.69888e-06
1.69888e-06
1.69887e-06
1.69887e-06
1.69887e-06
1.70729e-06
1.70836e-06
1.70732e-06
1.70436e-06
1.69887e-06
1.69888e-06
1.69888e-06
1.69887e-06
1.70796e-06
1.70613e-06
1.70809e-06
1.70724e-06
1.70515e-06
1.70676e-06
1.7075e-06
1.70749e-06
1.70727e-06
1.70612e-06
1.70831e-06
1.70832e-06
1.70774e-06
1.70494e-06
1.70834e-06
1.70807e-06
1.68396e-06
1.68383e-06
1.68345e-06
1.68039e-06
1.68043e-06
1.67998e-06
1.68067e-06
1.6842e-06
1.68412e-06
1.68344e-06
1.67823e-06
1.67576e-06
1.67576e-06
1.67576e-06
1.67576e-06
1.68125e-06
1.68204e-06
1.68039e-06
1.67576e-06
1.67576e-06
1.67576e-06
1.67576e-06
1.67576e-06
1.67576e-06
1.68364e-06
1.6852e-06
1.68396e-06
1.68043e-06
1.67576e-06
1.67576e-06
1.67576e-06
1.67576e-06
1.67576e-06
1.67576e-06
1.68438e-06
1.68458e-06
1.68384e-06
1.67997e-06
1.67576e-06
1.67576e-06
1.67576e-06
1.67576e-06
1.67576e-06
1.67576e-06
1.68436e-06
1.68185e-06
1.68068e-06
1.67576e-06
1.67576e-06
1.67576e-06
1.67576e-06
1.67576e-06
1.67576e-06
1.68417e-06
1.68525e-06
1.6842e-06
1.68124e-06
1.67576e-06
1.67576e-06
1.67576e-06
1.67576e-06
1.68485e-06
1.68302e-06
1.68498e-06
1.68412e-06
1.68203e-06
1.68363e-06
1.68438e-06
1.68438e-06
1.68418e-06
1.68301e-06
1.6852e-06
1.68519e-06
1.68455e-06
1.68188e-06
1.68526e-06
1.68497e-06
1.66085e-06
1.66073e-06
1.66034e-06
1.65728e-06
1.65731e-06
1.65687e-06
1.65756e-06
1.66109e-06
1.66101e-06
1.66032e-06
1.65512e-06
1.65265e-06
1.65265e-06
1.65265e-06
1.65265e-06
1.65814e-06
1.65893e-06
1.65728e-06
1.65265e-06
1.65265e-06
1.65265e-06
1.65265e-06
1.65265e-06
1.65265e-06
1.66053e-06
1.66209e-06
1.66086e-06
1.6573e-06
1.65265e-06
1.65265e-06
1.65265e-06
1.65265e-06
1.65265e-06
1.65265e-06
1.66127e-06
1.66147e-06
1.66074e-06
1.65687e-06
1.65265e-06
1.65265e-06
1.65265e-06
1.65265e-06
1.65265e-06
1.65265e-06
1.66125e-06
1.65874e-06
1.65756e-06
1.65265e-06
1.65265e-06
1.65265e-06
1.65265e-06
1.65265e-06
1.65265e-06
1.66106e-06
1.66214e-06
1.66109e-06
1.65813e-06
1.65265e-06
1.65265e-06
1.65265e-06
1.65265e-06
1.66175e-06
1.65991e-06
1.66187e-06
1.66101e-06
1.65892e-06
1.66052e-06
1.66126e-06
1.66128e-06
1.66107e-06
1.6599e-06
1.66209e-06
1.66207e-06
1.66139e-06
1.65879e-06
1.66215e-06
1.66187e-06
1.63775e-06
1.63763e-06
1.63723e-06
1.63417e-06
1.63419e-06
1.63376e-06
1.63445e-06
1.63798e-06
1.6379e-06
1.63721e-06
1.63201e-06
1.62954e-06
1.62954e-06
1.62954e-06
1.62954e-06
1.63502e-06
1.63582e-06
1.63416e-06
1.62954e-06
1.62954e-06
1.62954e-06
1.62954e-06
1.62954e-06
1.62954e-06
1.63742e-06
1.63898e-06
1.63774e-06
1.63421e-06
1.62954e-06
1.62954e-06
1.62954e-06
1.62954e-06
1.62954e-06
1.62954e-06
1.63816e-06
1.63836e-06
1.63762e-06
1.63375e-06
1.62954e-06
1.62954e-06
1.62954e-06
1.62954e-06
1.62954e-06
1.62954e-06
1.63814e-06
1.63563e-06
1.63445e-06
1.62954e-06
1.62954e-06
1.62954e-06
1.62954e-06
1.62954e-06
1.62954e-06
1.63795e-06
1.63903e-06
1.63798e-06
1.63502e-06
1.62954e-06
1.62954e-06
1.62954e-06
1.62954e-06
1.63863e-06
1.6368e-06
1.63876e-06
1.6379e-06
1.63581e-06
1.63742e-06
1.63816e-06
1.63816e-06
1.63795e-06
1.63679e-06
1.63898e-06
1.63897e-06
1.63832e-06
1.63566e-06
1.63903e-06
1.63877e-06
1.61463e-06
1.61451e-06
1.61412e-06
1.61106e-06
1.61109e-06
1.61064e-06
1.61134e-06
1.61487e-06
1.61479e-06
1.6141e-06
1.6089e-06
1.60643e-06
1.60643e-06
1.60643e-06
1.60643e-06
1.61191e-06
1.61271e-06
1.61105e-06
1.60643e-06
1.60643e-06
1.60643e-06
1.60643e-06
1.60643e-06
1.60643e-06
1.61431e-06
1.61587e-06
1.61463e-06
1.6111e-06
1.60643e-06
1.60643e-06
1.60643e-06
1.60643e-06
1.60643e-06
1.60643e-06
1.61505e-06
1.61525e-06
1.61451e-06
1.61065e-06
1.60643e-06
1.60643e-06
1.60643e-06
1.60643e-06
1.60643e-06
1.60643e-06
1.61503e-06
1.61252e-06
1.61134e-06
1.60643e-06
1.60643e-06
1.60643e-06
1.60643e-06
1.60643e-06
1.60643e-06
1.61484e-06
1.61591e-06
1.61486e-06
1.61191e-06
1.60643e-06
1.60643e-06
1.60643e-06
1.60643e-06
1.61552e-06
1.61368e-06
1.61564e-06
1.61479e-06
1.6127e-06
1.61431e-06
1.61505e-06
1.61503e-06
1.61484e-06
1.61367e-06
1.61587e-06
1.61587e-06
1.61525e-06
1.61252e-06
1.61591e-06
1.61563e-06
1.59152e-06
1.59139e-06
1.59101e-06
1.58795e-06
1.58798e-06
1.58753e-06
1.58823e-06
1.59176e-06
1.59168e-06
1.59099e-06
1.58579e-06
1.58332e-06
1.58332e-06
1.58332e-06
1.58332e-06
1.5888e-06
1.58959e-06
1.58794e-06
1.58332e-06
1.58332e-06
1.58332e-06
1.58332e-06
1.58332e-06
1.58332e-06
1.5912e-06
1.59275e-06
1.59149e-06
1.58799e-06
1.58332e-06
1.58332e-06
1.58332e-06
1.58332e-06
1.58332e-06
1.58332e-06
1.59194e-06
1.59213e-06
1.59135e-06
1.58757e-06
1.58332e-06
1.58332e-06
1.58332e-06
1.58332e-06
1.58332e-06
1.58332e-06
1.59192e-06
1.58941e-06
1.58822e-06
1.58332e-06
1.58332e-06
1.58332e-06
1.58332e-06
1.58332e-06
1.58332e-06
1.59173e-06
1.5928e-06
1.59175e-06
1.5888e-06
1.58332e-06
1.58332e-06
1.58332e-06
1.58332e-06
1.59241e-06
1.59057e-06
1.59253e-06
1.59167e-06
1.58959e-06
1.5912e-06
1.59194e-06
1.59192e-06
1.59173e-06
1.59056e-06
1.59276e-06
1.59275e-06
1.59213e-06
1.5894e-06
1.5928e-06
1.59252e-06
1.56841e-06
1.56829e-06
1.5679e-06
1.56484e-06
1.56487e-06
1.56442e-06
1.56512e-06
1.56865e-06
1.56856e-06
1.56788e-06
1.56267e-06
1.5602e-06
1.56021e-06
1.56021e-06
1.56021e-06
1.56569e-06
1.56648e-06
1.56483e-06
1.56021e-06
1.56021e-06
1.56021e-06
1.56021e-06
1.56021e-06
1.56021e-06
1.56808e-06
1.56964e-06
1.56834e-06
1.56487e-06
1.56021e-06
1.56021e-06
1.56021e-06
1.56021e-06
1.56021e-06
1.56021e-06
1.56883e-06
1.56902e-06
1.56822e-06
1.56447e-06
1.5602e-06
1.56021e-06
1.56021e-06
1.56021e-06
1.56021e-06
1.56021e-06
1.5688e-06
1.56629e-06
1.5651e-06
1.56021e-06
1.56021e-06
1.56021e-06
1.56021e-06
1.56021e-06
1.56021e-06
1.56862e-06
1.56969e-06
1.56864e-06
1.56568e-06
1.56021e-06
1.56021e-06
1.56021e-06
1.56021e-06
1.56929e-06
1.56746e-06
1.56942e-06
1.56856e-06
1.56647e-06
1.56808e-06
1.56883e-06
1.56881e-06
1.56862e-06
1.56745e-06
1.56965e-06
1.56964e-06
1.56903e-06
1.5663e-06
1.56969e-06
1.56941e-06
1.54529e-06
1.54517e-06
1.54479e-06
1.54172e-06
1.54176e-06
1.54131e-06
1.54201e-06
1.54553e-06
1.54545e-06
1.54477e-06
1.53957e-06
1.53709e-06
1.53709e-06
1.53709e-06
1.53709e-06
1.54257e-06
1.54337e-06
1.54172e-06
1.53709e-06
1.53709e-06
1.53709e-06
1.53709e-06
1.53709e-06
1.53709e-06
1.54497e-06
1.54653e-06
1.54525e-06
1.54172e-06
1.53709e-06
1.53709e-06
1.53709e-06
1.53709e-06
1.53709e-06
1.53709e-06
1.54571e-06
1.54591e-06
1.54515e-06
1.54134e-06
1.53709e-06
1.53709e-06
1.53709e-06
1.53709e-06
1.53709e-06
1.53709e-06
1.54569e-06
1.54318e-06
1.542e-06
1.53709e-06
1.53709e-06
1.53709e-06
1.53709e-06
1.53709e-06
1.53709e-06
1.54551e-06
1.54658e-06
1.54553e-06
1.54258e-06
1.53709e-06
1.53709e-06
1.53709e-06
1.53709e-06
1.54618e-06
1.54435e-06
1.54631e-06
1.54545e-06
1.54337e-06
1.54497e-06
1.54572e-06
1.5457e-06
1.5455e-06
1.54434e-06
1.54654e-06
1.54653e-06
1.54591e-06
1.54318e-06
1.54658e-06
1.5463e-06
1.52218e-06
1.52206e-06
1.52168e-06
1.51861e-06
1.51865e-06
1.5182e-06
1.51889e-06
1.52242e-06
1.52234e-06
1.52166e-06
1.51645e-06
1.51398e-06
1.51398e-06
1.51398e-06
1.51398e-06
1.51946e-06
1.52026e-06
1.51861e-06
1.51398e-06
1.51398e-06
1.51398e-06
1.51398e-06
1.51398e-06
1.51398e-06
1.52186e-06
1.52342e-06
1.52217e-06
1.51865e-06
1.51398e-06
1.51398e-06
1.51398e-06
1.51398e-06
1.51398e-06
1.51398e-06
1.5226e-06
1.5228e-06
1.52205e-06
1.51821e-06
1.51398e-06
1.51398e-06
1.51398e-06
1.51398e-06
1.51398e-06
1.51398e-06
1.52258e-06
1.52007e-06
1.51889e-06
1.51398e-06
1.51398e-06
1.51398e-06
1.51398e-06
1.51398e-06
1.51398e-06
1.52239e-06
1.52347e-06
1.52241e-06
1.51947e-06
1.51398e-06
1.51398e-06
1.51398e-06
1.51398e-06
1.52307e-06
1.52124e-06
1.5232e-06
1.52234e-06
1.52025e-06
1.52186e-06
1.5226e-06
1.52258e-06
1.52239e-06
1.52123e-06
1.52342e-06
1.52342e-06
1.5228e-06
1.52007e-06
1.52347e-06
1.52319e-06
1.49907e-06
1.49895e-06
1.49856e-06
1.4955e-06
1.49554e-06
1.49509e-06
1.49578e-06
1.49931e-06
1.49923e-06
1.49855e-06
1.49334e-06
1.49087e-06
1.49087e-06
1.49087e-06
1.49087e-06
1.49635e-06
1.49715e-06
1.4955e-06
1.49087e-06
1.49087e-06
1.49087e-06
1.49087e-06
1.49087e-06
1.49087e-06
1.49875e-06
1.50031e-06
1.49907e-06
1.49554e-06
1.49087e-06
1.49087e-06
1.49087e-06
1.49087e-06
1.49087e-06
1.49087e-06
1.49949e-06
1.49969e-06
1.49895e-06
1.49509e-06
1.49087e-06
1.49087e-06
1.49087e-06
1.49087e-06
1.49087e-06
1.49087e-06
1.49947e-06
1.49696e-06
1.49578e-06
1.49087e-06
1.49087e-06
1.49087e-06
1.49087e-06
1.49087e-06
1.49087e-06
1.49928e-06
1.50036e-06
1.4993e-06
1.49635e-06
1.49087e-06
1.49087e-06
1.49087e-06
1.49087e-06
1.49996e-06
1.49813e-06
1.50009e-06