/*--------------------------------*- C++ -*----------------------------------*\
| =========                 |                                                 |
| \\      /  F ield         | OpenFOAM: The Open Source CFD Toolbox           |
|  \\    /   O peration     | Version:  v2012                                 |
|   \\  /    A nd           | Website:  www.openfoam.com                      |
|    \\/     M anipulation  |                                                 |
\*---------------------------------------------------------------------------*/
FoamFile
{
    version     2.0;
    format      ascii;
    class       volScalarField;
    location    "0.5";
    object      p;
}
// * * * * * * * * * * * * * * * * * * * * * * * * * * * * * * * * * * * * * //

dimensions      [0 2 -2 0 0 0 0];


internalField   nonuniform List<scalar> 
244288
(
6.96777e-06
6.9559e-06
6.95848e-06
6.96132e-06
6.96134e-06
6.96114e-06
6.95806e-06
6.9559e-06
6.95455e-06
6.95385e-06
6.95361e-06
6.95348e-06
6.95364e-06
6.95391e-06
6.95469e-06
6.95847e-06
6.95385e-06
6.95066e-06
6.94888e-06
6.94834e-06
6.94903e-06
6.95098e-06
6.95436e-06
6.95912e-06
6.96131e-06
6.95361e-06
6.94887e-06
6.94632e-06
6.94557e-06
6.94653e-06
6.94934e-06
6.95439e-06
6.96254e-06
6.96773e-06
6.96132e-06
6.95347e-06
6.94834e-06
6.94557e-06
6.94476e-06
6.9458e-06
6.94884e-06
6.95431e-06
6.96243e-06
6.96112e-06
6.95363e-06
6.94902e-06
6.94653e-06
6.9458e-06
6.94674e-06
6.94948e-06
6.9544e-06
6.96232e-06
6.95805e-06
6.95389e-06
6.95097e-06
6.94933e-06
6.94884e-06
6.94947e-06
6.95126e-06
6.95436e-06
6.95862e-06
6.95468e-06
6.95435e-06
6.95438e-06
6.9543e-06
6.95439e-06
6.95436e-06
6.95477e-06
6.9591e-06
6.96252e-06
6.96241e-06
6.96231e-06
6.95861e-06
6.83983e-06
6.84357e-06
6.85074e-06
6.84059e-06
6.83901e-06
6.83905e-06
6.83948e-06
6.84713e-06
6.85114e-06
6.85074e-06
6.84138e-06
6.82841e-06
6.82841e-06
6.82841e-06
6.82841e-06
6.83911e-06
6.84294e-06
6.84059e-06
6.82841e-06
6.82885e-06
6.82901e-06
6.82901e-06
6.82885e-06
6.82841e-06
6.83922e-06
6.84482e-06
6.8398e-06
6.83901e-06
6.82841e-06
6.82901e-06
6.82924e-06
6.82924e-06
6.82901e-06
6.82841e-06
6.83767e-06
6.84049e-06
6.84361e-06
6.83905e-06
6.82841e-06
6.82901e-06
6.82924e-06
6.82924e-06
6.82901e-06
6.82841e-06
6.83754e-06
6.83919e-06
6.83947e-06
6.82841e-06
6.82885e-06
6.82901e-06
6.82901e-06
6.82885e-06
6.82841e-06
6.83816e-06
6.84069e-06
6.84712e-06
6.83911e-06
6.82841e-06
6.82841e-06
6.82841e-06
6.82841e-06
6.83695e-06
6.84131e-06
6.84717e-06
6.85113e-06
6.84294e-06
6.83922e-06
6.83767e-06
6.83753e-06
6.83816e-06
6.8413e-06
6.84851e-06
6.84481e-06
6.84049e-06
6.83918e-06
6.84068e-06
6.84716e-06
6.77717e-06
6.77653e-06
6.77648e-06
6.76895e-06
6.76835e-06
6.76831e-06
6.76855e-06
6.7749e-06
6.77648e-06
6.77648e-06
6.76747e-06
6.75459e-06
6.7546e-06
6.7546e-06
6.75459e-06
6.76535e-06
6.76901e-06
6.76897e-06
6.7546e-06
6.75464e-06
6.75465e-06
6.75465e-06
6.75463e-06
6.75459e-06
6.76656e-06
6.77575e-06
6.77724e-06
6.76838e-06
6.75461e-06
6.75465e-06
6.75468e-06
6.75468e-06
6.75465e-06
6.7546e-06
6.76581e-06
6.77469e-06
6.77663e-06
6.76835e-06
6.75461e-06
6.75466e-06
6.75468e-06
6.75468e-06
6.75465e-06
6.7546e-06
6.76574e-06
6.76986e-06
6.76857e-06
6.7546e-06
6.75464e-06
6.75466e-06
6.75465e-06
6.75463e-06
6.75459e-06
6.76603e-06
6.7751e-06
6.77492e-06
6.76537e-06
6.7546e-06
6.75461e-06
6.7546e-06
6.7546e-06
6.76318e-06
6.76787e-06
6.77633e-06
6.7765e-06
6.76903e-06
6.76658e-06
6.76584e-06
6.76576e-06
6.76605e-06
6.76788e-06
6.77384e-06
6.77577e-06
6.77473e-06
6.7699e-06
6.77513e-06
6.77634e-06
6.70432e-06
6.70372e-06
6.70338e-06
6.69592e-06
6.69534e-06
6.69533e-06
6.69553e-06
6.70188e-06
6.70337e-06
6.70339e-06
6.69434e-06
6.6814e-06
6.6814e-06
6.6814e-06
6.6814e-06
6.69221e-06
6.6959e-06
6.69592e-06
6.6814e-06
6.6814e-06
6.6814e-06
6.6814e-06
6.6814e-06
6.6814e-06
6.69348e-06
6.70278e-06
6.70432e-06
6.69535e-06
6.6814e-06
6.6814e-06
6.6814e-06
6.6814e-06
6.6814e-06
6.6814e-06
6.69276e-06
6.70179e-06
6.70374e-06
6.69533e-06
6.6814e-06
6.6814e-06
6.6814e-06
6.6814e-06
6.6814e-06
6.6814e-06
6.6927e-06
6.69692e-06
6.69554e-06
6.6814e-06
6.6814e-06
6.6814e-06
6.6814e-06
6.6814e-06
6.6814e-06
6.69297e-06
6.70219e-06
6.70188e-06
6.69222e-06
6.6814e-06
6.6814e-06
6.6814e-06
6.6814e-06
6.69002e-06
6.69477e-06
6.70334e-06
6.70338e-06
6.69591e-06
6.69349e-06
6.69276e-06
6.6927e-06
6.69297e-06
6.69477e-06
6.70072e-06
6.70278e-06
6.7018e-06
6.69693e-06
6.70219e-06
6.70334e-06
6.63121e-06
6.63059e-06
6.63028e-06
6.62279e-06
6.62222e-06
6.6222e-06
6.62241e-06
6.62876e-06
6.63028e-06
6.63028e-06
6.62121e-06
6.60826e-06
6.60826e-06
6.60826e-06
6.60827e-06
6.61909e-06
6.62278e-06
6.62279e-06
6.60826e-06
6.60826e-06
6.60826e-06
6.60826e-06
6.60826e-06
6.60827e-06
6.62036e-06
6.62966e-06
6.63125e-06
6.62222e-06
6.60826e-06
6.60826e-06
6.60826e-06
6.60826e-06
6.60826e-06
6.60826e-06
6.61963e-06
6.62867e-06
6.63062e-06
6.6222e-06
6.60826e-06
6.60826e-06
6.60826e-06
6.60826e-06
6.60826e-06
6.60827e-06
6.61957e-06
6.6238e-06
6.62241e-06
6.60827e-06
6.60827e-06
6.60826e-06
6.60827e-06
6.60827e-06
6.60827e-06
6.61984e-06
6.62907e-06
6.62876e-06
6.61909e-06
6.60827e-06
6.60827e-06
6.60827e-06
6.60827e-06
6.61689e-06
6.62165e-06
6.63022e-06
6.63029e-06
6.62279e-06
6.62036e-06
6.61964e-06
6.61958e-06
6.61985e-06
6.62165e-06
6.62762e-06
6.62967e-06
6.62869e-06
6.62381e-06
6.62908e-06
6.63022e-06
6.55808e-06
6.55747e-06
6.55715e-06
6.54967e-06
6.54909e-06
6.54908e-06
6.54928e-06
6.55564e-06
6.55716e-06
6.55714e-06
6.54808e-06
6.53514e-06
6.53514e-06
6.53514e-06
6.53514e-06
6.54596e-06
6.54966e-06
6.54965e-06
6.53514e-06
6.53514e-06
6.53514e-06
6.53514e-06
6.53514e-06
6.53514e-06
6.54723e-06
6.55653e-06
6.55802e-06
6.54907e-06
6.53514e-06
6.53514e-06
6.53514e-06
6.53514e-06
6.53514e-06
6.53514e-06
6.54651e-06
6.55555e-06
6.55743e-06
6.54906e-06
6.53514e-06
6.53514e-06
6.53514e-06
6.53514e-06
6.53514e-06
6.53514e-06
6.54645e-06
6.55068e-06
6.54927e-06
6.53514e-06
6.53514e-06
6.53514e-06
6.53514e-06
6.53514e-06
6.53514e-06
6.54672e-06
6.55594e-06
6.55563e-06
6.54596e-06
6.53514e-06
6.53514e-06
6.53514e-06
6.53514e-06
6.54377e-06
6.54852e-06
6.55709e-06
6.55716e-06
6.54966e-06
6.54723e-06
6.54651e-06
6.54645e-06
6.54672e-06
6.54852e-06
6.55449e-06
6.55654e-06
6.55555e-06
6.55068e-06
6.55595e-06
6.5571e-06
6.48496e-06
6.48435e-06
6.48403e-06
6.47655e-06
6.47597e-06
6.47596e-06
6.47616e-06
6.48251e-06
6.48404e-06
6.48403e-06
6.47497e-06
6.46202e-06
6.46202e-06
6.46202e-06
6.46202e-06
6.47284e-06
6.47654e-06
6.47655e-06
6.46202e-06
6.46202e-06
6.46202e-06
6.46202e-06
6.46202e-06
6.46202e-06
6.47411e-06
6.48341e-06
6.48494e-06
6.47598e-06
6.46203e-06
6.46202e-06
6.46202e-06
6.46202e-06
6.46202e-06
6.46202e-06
6.47339e-06
6.48243e-06
6.48446e-06
6.47598e-06
6.46203e-06
6.46202e-06
6.46202e-06
6.46202e-06
6.46202e-06
6.46202e-06
6.47333e-06
6.47756e-06
6.47618e-06
6.46203e-06
6.46202e-06
6.46202e-06
6.46202e-06
6.46202e-06
6.46202e-06
6.4736e-06
6.48282e-06
6.48253e-06
6.47285e-06
6.46202e-06
6.46202e-06
6.46202e-06
6.46202e-06
6.47065e-06
6.4754e-06
6.48397e-06
6.48405e-06
6.47654e-06
6.47411e-06
6.47338e-06
6.47332e-06
6.47359e-06
6.4754e-06
6.48137e-06
6.48341e-06
6.48242e-06
6.47755e-06
6.48282e-06
6.48397e-06
6.41184e-06
6.41123e-06
6.41091e-06
6.40343e-06
6.40285e-06
6.40283e-06
6.40304e-06
6.40939e-06
6.41092e-06
6.41092e-06
6.40185e-06
6.3889e-06
6.3889e-06
6.3889e-06
6.3889e-06
6.39972e-06
6.40342e-06
6.40343e-06
6.3889e-06
6.3889e-06
6.3889e-06
6.3889e-06
6.3889e-06
6.3889e-06
6.40099e-06
6.41029e-06
6.41184e-06
6.40286e-06
6.3889e-06
6.3889e-06
6.3889e-06
6.3889e-06
6.3889e-06
6.3889e-06
6.40027e-06
6.40931e-06
6.41126e-06
6.40284e-06
6.3889e-06
6.3889e-06
6.3889e-06
6.3889e-06
6.3889e-06
6.3889e-06
6.4002e-06
6.40444e-06
6.40305e-06
6.3889e-06
6.3889e-06
6.3889e-06
6.3889e-06
6.3889e-06
6.3889e-06
6.40047e-06
6.4097e-06
6.4094e-06
6.39972e-06
6.3889e-06
6.3889e-06
6.3889e-06
6.3889e-06
6.39753e-06
6.40228e-06
6.41085e-06
6.41092e-06
6.40342e-06
6.40099e-06
6.40027e-06
6.4002e-06
6.40047e-06
6.40228e-06
6.40825e-06
6.41029e-06
6.4093e-06
6.40443e-06
6.4097e-06
6.41085e-06
6.33872e-06
6.33811e-06
6.33779e-06
6.3303e-06
6.32973e-06
6.32971e-06
6.32992e-06
6.33627e-06
6.33779e-06
6.33778e-06
6.32872e-06
6.31577e-06
6.31577e-06
6.31578e-06
6.31578e-06
6.3266e-06
6.3303e-06
6.33029e-06
6.31577e-06
6.31577e-06
6.31577e-06
6.31577e-06
6.31578e-06
6.31578e-06
6.32787e-06
6.33717e-06
6.33873e-06
6.32972e-06
6.31577e-06
6.31577e-06
6.31577e-06
6.31577e-06
6.31577e-06
6.31578e-06
6.32714e-06
6.33618e-06
6.33805e-06
6.32969e-06
6.31577e-06
6.31577e-06
6.31577e-06
6.31577e-06
6.31577e-06
6.31577e-06
6.32708e-06
6.33131e-06
6.3299e-06
6.31577e-06
6.31577e-06
6.31577e-06
6.31577e-06
6.31577e-06
6.31577e-06
6.32735e-06
6.33658e-06
6.33626e-06
6.32659e-06
6.31577e-06
6.31577e-06
6.31577e-06
6.31577e-06
6.3244e-06
6.32916e-06
6.33773e-06
6.33779e-06
6.33029e-06
6.32786e-06
6.32714e-06
6.32708e-06
6.32735e-06
6.32916e-06
6.33513e-06
6.33716e-06
6.33618e-06
6.3313e-06
6.33657e-06
6.33773e-06
6.2656e-06
6.26499e-06
6.26467e-06
6.25719e-06
6.25661e-06
6.25659e-06
6.2568e-06
6.26315e-06
6.26468e-06
6.26467e-06
6.25561e-06
6.24266e-06
6.24266e-06
6.24266e-06
6.24266e-06
6.25348e-06
6.25718e-06
6.25719e-06
6.24266e-06
6.24266e-06
6.24266e-06
6.24266e-06
6.24266e-06
6.24266e-06
6.25475e-06
6.26405e-06
6.26562e-06
6.25662e-06
6.24266e-06
6.24266e-06
6.24266e-06
6.24266e-06
6.24266e-06
6.24266e-06
6.25402e-06
6.26306e-06
6.26497e-06
6.2566e-06
6.24266e-06
6.24266e-06
6.24266e-06
6.24266e-06
6.24266e-06
6.24266e-06
6.25396e-06
6.25819e-06
6.2568e-06
6.24266e-06
6.24266e-06
6.24266e-06
6.24266e-06
6.24266e-06
6.24266e-06
6.25423e-06
6.26346e-06
6.26315e-06
6.25348e-06
6.24266e-06
6.24266e-06
6.24266e-06
6.24266e-06
6.25128e-06
6.25604e-06
6.26461e-06
6.26467e-06
6.25718e-06
6.25475e-06
6.25402e-06
6.25396e-06
6.25423e-06
6.25604e-06
6.26201e-06
6.26405e-06
6.26306e-06
6.25819e-06
6.26346e-06
6.26461e-06
6.19247e-06
6.19187e-06
6.19155e-06
6.18406e-06
6.18349e-06
6.18347e-06
6.18368e-06
6.19003e-06
6.19155e-06
6.19155e-06
6.18248e-06
6.16953e-06
6.16953e-06
6.16953e-06
6.16953e-06
6.18036e-06
6.18405e-06
6.18407e-06
6.16954e-06
6.16954e-06
6.16953e-06
6.16953e-06
6.16953e-06
6.16953e-06
6.18163e-06
6.19093e-06
6.19248e-06
6.18349e-06
6.16954e-06
6.16954e-06
6.16953e-06
6.16953e-06
6.16953e-06
6.16953e-06
6.1809e-06
6.18995e-06
6.1919e-06
6.18347e-06
6.16954e-06
6.16954e-06
6.16953e-06
6.16953e-06
6.16953e-06
6.16953e-06
6.18084e-06
6.18508e-06
6.18368e-06
6.16954e-06
6.16954e-06
6.16953e-06
6.16953e-06
6.16953e-06
6.16953e-06
6.18111e-06
6.19034e-06
6.19003e-06
6.18036e-06
6.16954e-06
6.16953e-06
6.16953e-06
6.16953e-06
6.17816e-06
6.18292e-06
6.19149e-06
6.19156e-06
6.18406e-06
6.18163e-06
6.1809e-06
6.18084e-06
6.18111e-06
6.18291e-06
6.18888e-06
6.19093e-06
6.18994e-06
6.18507e-06
6.19033e-06
6.19148e-06
6.11935e-06
6.11874e-06
6.11842e-06
6.11094e-06
6.11036e-06
6.11034e-06
6.11055e-06
6.1169e-06
6.11843e-06
6.11842e-06
6.10936e-06
6.09641e-06
6.09641e-06
6.09641e-06
6.09641e-06
6.10723e-06
6.11093e-06
6.11094e-06
6.09641e-06
6.09641e-06
6.09641e-06
6.09641e-06
6.09641e-06
6.09641e-06
6.1085e-06
6.1178e-06
6.11935e-06
6.11036e-06
6.09641e-06
6.09641e-06
6.09641e-06
6.09641e-06
6.09641e-06
6.09641e-06
6.10777e-06
6.11681e-06
6.11875e-06
6.11034e-06
6.09641e-06
6.09641e-06
6.09641e-06
6.09641e-06
6.09641e-06
6.09641e-06
6.10771e-06
6.11194e-06
6.11055e-06
6.09641e-06
6.09641e-06
6.09641e-06
6.09641e-06
6.09641e-06
6.09641e-06
6.10798e-06
6.11721e-06
6.11691e-06
6.10723e-06
6.09641e-06
6.09641e-06
6.09641e-06
6.09641e-06
6.10504e-06
6.10979e-06
6.11836e-06
6.11843e-06
6.11093e-06
6.1085e-06
6.10778e-06
6.10772e-06
6.10799e-06
6.10979e-06
6.11576e-06
6.11781e-06
6.11682e-06
6.11195e-06
6.11722e-06
6.11836e-06
6.04623e-06
6.04562e-06
6.0453e-06
6.03781e-06
6.03724e-06
6.03722e-06
6.03743e-06
6.04378e-06
6.04531e-06
6.0453e-06
6.03623e-06
6.02329e-06
6.02329e-06
6.02329e-06
6.02329e-06
6.03411e-06
6.03781e-06
6.03781e-06
6.02328e-06
6.02329e-06
6.02329e-06
6.02329e-06
6.02329e-06
6.02329e-06
6.03538e-06
6.04468e-06
6.04625e-06
6.03723e-06
6.02328e-06
6.02329e-06
6.02329e-06
6.02329e-06
6.02329e-06
6.02329e-06
6.03466e-06
6.04369e-06
6.04563e-06
6.03722e-06
6.02328e-06
6.02329e-06
6.02329e-06
6.02329e-06
6.02329e-06
6.02329e-06
6.03459e-06
6.03882e-06
6.03743e-06
6.02329e-06
6.02329e-06
6.02329e-06
6.02329e-06
6.02329e-06
6.02329e-06
6.03486e-06
6.04409e-06
6.04378e-06
6.03411e-06
6.02329e-06
6.02329e-06
6.02329e-06
6.02329e-06
6.03192e-06
6.03667e-06
6.04524e-06
6.04531e-06
6.03781e-06
6.03538e-06
6.03466e-06
6.0346e-06
6.03487e-06
6.03667e-06
6.04264e-06
6.04469e-06
6.0437e-06
6.03884e-06
6.0441e-06
6.04524e-06
5.97311e-06
5.9725e-06
5.97218e-06
5.96469e-06
5.96412e-06
5.9641e-06
5.96431e-06
5.97066e-06
5.97219e-06
5.97217e-06
5.96311e-06
5.95017e-06
5.95017e-06
5.95017e-06
5.95017e-06
5.96099e-06
5.96469e-06
5.96469e-06
5.95017e-06
5.95017e-06
5.95017e-06
5.95017e-06
5.95017e-06
5.95017e-06
5.96226e-06
5.97156e-06
5.97306e-06
5.96411e-06
5.95017e-06
5.95017e-06
5.95017e-06
5.95017e-06
5.95017e-06
5.95017e-06
5.96154e-06
5.97057e-06
5.97245e-06
5.9641e-06
5.95017e-06
5.95017e-06
5.95017e-06
5.95017e-06
5.95017e-06
5.95017e-06
5.96147e-06
5.96571e-06
5.96431e-06
5.95017e-06
5.95017e-06
5.95017e-06
5.95017e-06
5.95017e-06
5.95017e-06
5.96174e-06
5.97097e-06
5.97066e-06
5.961e-06
5.95017e-06
5.95017e-06
5.95017e-06
5.95017e-06
5.9588e-06
5.96355e-06
5.97212e-06
5.97219e-06
5.96469e-06
5.96226e-06
5.96154e-06
5.96148e-06
5.96175e-06
5.96355e-06
5.96952e-06
5.97157e-06
5.97058e-06
5.96571e-06
5.97098e-06
5.97212e-06
5.89999e-06
5.89938e-06
5.89906e-06
5.89157e-06
5.891e-06
5.89098e-06
5.89119e-06
5.89754e-06
5.89906e-06
5.89907e-06
5.89e-06
5.87705e-06
5.87705e-06
5.87705e-06
5.87704e-06
5.88787e-06
5.89157e-06
5.89158e-06
5.87705e-06
5.87705e-06
5.87705e-06
5.87705e-06
5.87704e-06
5.87704e-06
5.88914e-06
5.89844e-06
5.89998e-06
5.89101e-06
5.87705e-06
5.87705e-06
5.87705e-06
5.87704e-06
5.87704e-06
5.87704e-06
5.88841e-06
5.89745e-06
5.89945e-06
5.891e-06
5.87705e-06
5.87705e-06
5.87705e-06
5.87704e-06
5.87704e-06
5.87704e-06
5.88835e-06
5.89258e-06
5.89121e-06
5.87705e-06
5.87705e-06
5.87704e-06
5.87704e-06
5.87704e-06
5.87704e-06
5.88862e-06
5.89785e-06
5.89755e-06
5.88788e-06
5.87704e-06
5.87704e-06
5.87704e-06
5.87704e-06
5.88567e-06
5.89043e-06
5.899e-06
5.89907e-06
5.89157e-06
5.88914e-06
5.88841e-06
5.88835e-06
5.88862e-06
5.89042e-06
5.8964e-06
5.89844e-06
5.89745e-06
5.89258e-06
5.89785e-06
5.89899e-06
5.82686e-06
5.82626e-06
5.82594e-06
5.81845e-06
5.81787e-06
5.81786e-06
5.81806e-06
5.82442e-06
5.82594e-06
5.82594e-06
5.81687e-06
5.80392e-06
5.80392e-06
5.80392e-06
5.80392e-06
5.81475e-06
5.81844e-06
5.81845e-06
5.80392e-06
5.80392e-06
5.80392e-06
5.80392e-06
5.80392e-06
5.80392e-06
5.81601e-06
5.82531e-06
5.82688e-06
5.81788e-06
5.80392e-06
5.80392e-06
5.80392e-06
5.80392e-06
5.80392e-06
5.80392e-06
5.81529e-06
5.82433e-06
5.82623e-06
5.81786e-06
5.80392e-06
5.80392e-06
5.80392e-06
5.80392e-06
5.80392e-06
5.80392e-06
5.81523e-06
5.81946e-06
5.81807e-06
5.80392e-06
5.80392e-06
5.80392e-06
5.80392e-06
5.80392e-06
5.80392e-06
5.8155e-06
5.82473e-06
5.82442e-06
5.81474e-06
5.80392e-06
5.80392e-06
5.80392e-06
5.80392e-06
5.81255e-06
5.8173e-06
5.82587e-06
5.82594e-06
5.81844e-06
5.81601e-06
5.81528e-06
5.81522e-06
5.81549e-06
5.8173e-06
5.82327e-06
5.82531e-06
5.82431e-06
5.81945e-06
5.82471e-06
5.82587e-06
5.75374e-06
5.75313e-06
5.75281e-06
5.74532e-06
5.74475e-06
5.74473e-06
5.74494e-06
5.75129e-06
5.75282e-06
5.7528e-06
5.74374e-06
5.73079e-06
5.73079e-06
5.73079e-06
5.73079e-06
5.74162e-06
5.74532e-06
5.74532e-06
5.73079e-06
5.73079e-06
5.73079e-06
5.73079e-06
5.73079e-06
5.7308e-06
5.74289e-06
5.75219e-06
5.75371e-06
5.74474e-06
5.73079e-06
5.73079e-06
5.73079e-06
5.73079e-06
5.73079e-06
5.73079e-06
5.74216e-06
5.7512e-06
5.75311e-06
5.74472e-06
5.73079e-06
5.73079e-06
5.73079e-06
5.73079e-06
5.73079e-06
5.73079e-06
5.7421e-06
5.74633e-06
5.74493e-06
5.73079e-06
5.73079e-06
5.73079e-06
5.73079e-06
5.73079e-06
5.73079e-06
5.74237e-06
5.7516e-06
5.75128e-06
5.74161e-06
5.73079e-06
5.73079e-06
5.73079e-06
5.73079e-06
5.73942e-06
5.74418e-06
5.75275e-06
5.75281e-06
5.74531e-06
5.74288e-06
5.74216e-06
5.7421e-06
5.74237e-06
5.74417e-06
5.75014e-06
5.75218e-06
5.7512e-06
5.74633e-06
5.7516e-06
5.75275e-06
5.68062e-06
5.68e-06
5.67969e-06
5.6722e-06
5.67163e-06
5.67161e-06
5.67182e-06
5.67817e-06
5.67969e-06
5.67968e-06
5.67062e-06
5.65767e-06
5.65767e-06
5.65767e-06
5.65767e-06
5.6685e-06
5.67219e-06
5.6722e-06
5.65767e-06
5.65767e-06
5.65767e-06
5.65767e-06
5.65767e-06
5.65767e-06
5.66977e-06
5.67907e-06
5.68061e-06
5.67162e-06
5.65767e-06
5.65767e-06
5.65767e-06
5.65767e-06
5.65767e-06
5.65767e-06
5.66904e-06
5.67808e-06
5.68001e-06
5.67161e-06
5.65767e-06
5.65767e-06
5.65767e-06
5.65767e-06
5.65767e-06
5.65767e-06
5.66898e-06
5.67321e-06
5.67181e-06
5.65767e-06
5.65767e-06
5.65767e-06
5.65767e-06
5.65767e-06
5.65767e-06
5.66925e-06
5.67848e-06
5.67816e-06
5.66849e-06
5.65767e-06
5.65767e-06
5.65767e-06
5.65767e-06
5.6663e-06
5.67105e-06
5.67962e-06
5.67969e-06
5.67218e-06
5.66975e-06
5.66902e-06
5.66897e-06
5.66924e-06
5.67105e-06
5.67702e-06
5.67904e-06
5.67805e-06
5.67318e-06
5.67846e-06
5.67962e-06
5.60749e-06
5.60688e-06
5.60657e-06
5.59908e-06
5.5985e-06
5.59849e-06
5.5987e-06
5.60505e-06
5.60657e-06
5.60657e-06
5.5975e-06
5.58455e-06
5.58455e-06
5.58455e-06
5.58455e-06
5.59538e-06
5.59907e-06
5.59909e-06
5.58455e-06
5.58455e-06
5.58455e-06
5.58455e-06
5.58455e-06
5.58455e-06
5.59665e-06
5.60595e-06
5.60751e-06
5.59851e-06
5.58455e-06
5.58455e-06
5.58455e-06
5.58455e-06
5.58455e-06
5.58455e-06
5.59592e-06
5.60496e-06
5.60692e-06
5.5985e-06
5.58456e-06
5.58455e-06
5.58455e-06
5.58455e-06
5.58455e-06
5.58455e-06
5.59586e-06
5.60009e-06
5.5987e-06
5.58455e-06
5.58455e-06
5.58455e-06
5.58455e-06
5.58455e-06
5.58455e-06
5.59613e-06
5.60536e-06
5.60505e-06
5.59538e-06
5.58455e-06
5.58456e-06
5.58456e-06
5.58455e-06
5.59318e-06
5.59794e-06
5.60651e-06
5.60657e-06
5.59908e-06
5.59665e-06
5.59593e-06
5.59587e-06
5.59614e-06
5.59794e-06
5.60391e-06
5.60596e-06
5.60498e-06
5.60012e-06
5.60538e-06
5.60652e-06
5.53437e-06
5.53376e-06
5.53344e-06
5.52596e-06
5.52538e-06
5.52537e-06
5.52557e-06
5.53193e-06
5.53345e-06
5.53344e-06
5.52438e-06
5.51143e-06
5.51143e-06
5.51143e-06
5.51143e-06
5.52226e-06
5.52595e-06
5.52596e-06
5.51143e-06
5.51143e-06
5.51143e-06
5.51143e-06
5.51143e-06
5.51143e-06
5.52352e-06
5.53282e-06
5.53438e-06
5.52538e-06
5.51143e-06
5.51143e-06
5.51143e-06
5.51143e-06
5.51143e-06
5.51143e-06
5.5228e-06
5.53184e-06
5.53378e-06
5.52537e-06
5.51143e-06
5.51143e-06
5.51143e-06
5.51143e-06
5.51143e-06
5.51143e-06
5.52274e-06
5.52697e-06
5.52557e-06
5.51143e-06
5.51143e-06
5.51143e-06
5.51143e-06
5.51143e-06
5.51143e-06
5.523e-06
5.53223e-06
5.53192e-06
5.52225e-06
5.51143e-06
5.51142e-06
5.51142e-06
5.51142e-06
5.52005e-06
5.52481e-06
5.53338e-06
5.53345e-06
5.52595e-06
5.52352e-06
5.52279e-06
5.52272e-06
5.52299e-06
5.5248e-06
5.53078e-06
5.53281e-06
5.53182e-06
5.52693e-06
5.53221e-06
5.53337e-06
5.46126e-06
5.46064e-06
5.46032e-06
5.45284e-06
5.45226e-06
5.45225e-06
5.45246e-06
5.45881e-06
5.46033e-06
5.46032e-06
5.45126e-06
5.43831e-06
5.43831e-06
5.43831e-06
5.43831e-06
5.44914e-06
5.45283e-06
5.45283e-06
5.43831e-06
5.43831e-06
5.43831e-06
5.43831e-06
5.43831e-06
5.43831e-06
5.4504e-06
5.4597e-06
5.46125e-06
5.45226e-06
5.43831e-06
5.43831e-06
5.43831e-06
5.43831e-06
5.43831e-06
5.43831e-06
5.44968e-06
5.45872e-06
5.46065e-06
5.45224e-06
5.43831e-06
5.43831e-06
5.43831e-06
5.43831e-06
5.43831e-06
5.43831e-06
5.44961e-06
5.45384e-06
5.45245e-06
5.43831e-06
5.43831e-06
5.43831e-06
5.43831e-06
5.43831e-06
5.43831e-06
5.44988e-06
5.45911e-06
5.4588e-06
5.44913e-06
5.43831e-06
5.43831e-06
5.43831e-06
5.43831e-06
5.44694e-06
5.45169e-06
5.46026e-06
5.46033e-06
5.45283e-06
5.45041e-06
5.44968e-06
5.44962e-06
5.44989e-06
5.45169e-06
5.45766e-06
5.45971e-06
5.45874e-06
5.45387e-06
5.45911e-06
5.46026e-06
5.38814e-06
5.38753e-06
5.38721e-06
5.37972e-06
5.37915e-06
5.37913e-06
5.37934e-06
5.38569e-06
5.38721e-06
5.3872e-06
5.37814e-06
5.36519e-06
5.36519e-06
5.36519e-06
5.36519e-06
5.37602e-06
5.37971e-06
5.37972e-06
5.36519e-06
5.36519e-06
5.36519e-06
5.36519e-06
5.36519e-06
5.36519e-06
5.37729e-06
5.38659e-06
5.38813e-06
5.37914e-06
5.36519e-06
5.36519e-06
5.36519e-06
5.36519e-06
5.36519e-06
5.36519e-06
5.37656e-06
5.3856e-06
5.38752e-06
5.37913e-06
5.36519e-06
5.36519e-06
5.36519e-06
5.36519e-06
5.36519e-06
5.36519e-06
5.3765e-06
5.38073e-06
5.37934e-06
5.36519e-06
5.36519e-06
5.36519e-06
5.3652e-06
5.3652e-06
5.3652e-06
5.37677e-06
5.386e-06
5.38569e-06
5.37602e-06
5.36519e-06
5.3652e-06
5.3652e-06
5.3652e-06
5.37382e-06
5.37858e-06
5.38714e-06
5.38721e-06
5.37971e-06
5.37728e-06
5.37655e-06
5.37649e-06
5.37677e-06
5.37858e-06
5.38455e-06
5.38657e-06
5.38558e-06
5.38071e-06
5.386e-06
5.38715e-06
5.31503e-06
5.31442e-06
5.31409e-06
5.30661e-06
5.30603e-06
5.30602e-06
5.30623e-06
5.31257e-06
5.3141e-06
5.31409e-06
5.30502e-06
5.29208e-06
5.29208e-06
5.29208e-06
5.29208e-06
5.3029e-06
5.3066e-06
5.3066e-06
5.29208e-06
5.29208e-06
5.29208e-06
5.29208e-06
5.29208e-06
5.29208e-06
5.30417e-06
5.31347e-06
5.315e-06
5.30602e-06
5.29208e-06
5.29208e-06
5.29208e-06
5.29208e-06
5.29208e-06
5.29208e-06
5.30344e-06
5.31248e-06
5.3144e-06
5.306e-06
5.29208e-06
5.29208e-06
5.29208e-06
5.29208e-06
5.29208e-06
5.29208e-06
5.30338e-06
5.30761e-06
5.30621e-06
5.29208e-06
5.29208e-06
5.29208e-06
5.29208e-06
5.29208e-06
5.29208e-06
5.30365e-06
5.31288e-06
5.31257e-06
5.3029e-06
5.29208e-06
5.29208e-06
5.29208e-06
5.29208e-06
5.30071e-06
5.30546e-06
5.31403e-06
5.3141e-06
5.3066e-06
5.30418e-06
5.30346e-06
5.3034e-06
5.30367e-06
5.30547e-06
5.31143e-06
5.31348e-06
5.31251e-06
5.30765e-06
5.31292e-06
5.31405e-06
5.2419e-06
5.24128e-06
5.24097e-06
5.23348e-06
5.23291e-06
5.23289e-06
5.2331e-06
5.23945e-06
5.24098e-06
5.24097e-06
5.2319e-06
5.21895e-06
5.21895e-06
5.21895e-06
5.21895e-06
5.22978e-06
5.23348e-06
5.23348e-06
5.21895e-06
5.21895e-06
5.21895e-06
5.21895e-06
5.21895e-06
5.21895e-06
5.23105e-06
5.24035e-06
5.24191e-06
5.23291e-06
5.21895e-06
5.21895e-06
5.21895e-06
5.21895e-06
5.21895e-06
5.21895e-06
5.23032e-06
5.23936e-06
5.2413e-06
5.2329e-06
5.21895e-06
5.21895e-06
5.21895e-06
5.21895e-06
5.21895e-06
5.21895e-06
5.23026e-06
5.23449e-06
5.2331e-06
5.21895e-06
5.21895e-06
5.21895e-06
5.21895e-06
5.21895e-06
5.21895e-06
5.23053e-06
5.23976e-06
5.23945e-06
5.22978e-06
5.21895e-06
5.21895e-06
5.21895e-06
5.21895e-06
5.22758e-06
5.23233e-06
5.24091e-06
5.24097e-06
5.23347e-06
5.23104e-06
5.23031e-06
5.23025e-06
5.23052e-06
5.23233e-06
5.2383e-06
5.24034e-06
5.23935e-06
5.23447e-06
5.23974e-06
5.2409e-06
5.16877e-06
5.16815e-06
5.16784e-06
5.16036e-06
5.15978e-06
5.15976e-06
5.15997e-06
5.16633e-06
5.16785e-06
5.16784e-06
5.15878e-06
5.14583e-06
5.14583e-06
5.14583e-06
5.14583e-06
5.15666e-06
5.16035e-06
5.16036e-06
5.14583e-06
5.14583e-06
5.14583e-06
5.14583e-06
5.14583e-06
5.14583e-06
5.15793e-06
5.16723e-06
5.16876e-06
5.15978e-06
5.14583e-06
5.14583e-06
5.14583e-06
5.14583e-06
5.14583e-06
5.14583e-06
5.1572e-06
5.16624e-06
5.16813e-06
5.15976e-06
5.14583e-06
5.14583e-06
5.14583e-06
5.14583e-06
5.14583e-06
5.14583e-06
5.15714e-06
5.16137e-06
5.15997e-06
5.14583e-06
5.14583e-06
5.14584e-06
5.14583e-06
5.14583e-06
5.14583e-06
5.15741e-06
5.16664e-06
5.16633e-06
5.15666e-06
5.14584e-06
5.14584e-06
5.14584e-06
5.14584e-06
5.15446e-06
5.15922e-06
5.16779e-06
5.16785e-06
5.16036e-06
5.15793e-06
5.15721e-06
5.15715e-06
5.15741e-06
5.15921e-06
5.16518e-06
5.16724e-06
5.16625e-06
5.16138e-06
5.16664e-06
5.16778e-06
5.09563e-06
5.09501e-06
5.09472e-06
5.08723e-06
5.08666e-06
5.08664e-06
5.08685e-06
5.0932e-06
5.09472e-06
5.09472e-06
5.08565e-06
5.07271e-06
5.07271e-06
5.07271e-06
5.07271e-06
5.08353e-06
5.08723e-06
5.08724e-06
5.07271e-06
5.07271e-06
5.07271e-06
5.07271e-06
5.07271e-06
5.07271e-06
5.0848e-06
5.0941e-06
5.09565e-06
5.08666e-06
5.07271e-06
5.07271e-06
5.07271e-06
5.07271e-06
5.07271e-06
5.07271e-06
5.08408e-06
5.09312e-06
5.09504e-06
5.08665e-06
5.07271e-06
5.07271e-06
5.07271e-06
5.07271e-06
5.07271e-06
5.07271e-06
5.08402e-06
5.08825e-06
5.08685e-06
5.07271e-06
5.07271e-06
5.07271e-06
5.07271e-06
5.07271e-06
5.07271e-06
5.08429e-06
5.09352e-06
5.09321e-06
5.08354e-06
5.07271e-06
5.07271e-06
5.07271e-06
5.07271e-06
5.08134e-06
5.08609e-06
5.09466e-06
5.09473e-06
5.08723e-06
5.08481e-06
5.08408e-06
5.08402e-06
5.08429e-06
5.08609e-06
5.09206e-06
5.09411e-06
5.09313e-06
5.08825e-06
5.09351e-06
5.09466e-06
5.02253e-06
5.02192e-06
5.0216e-06
5.01411e-06
5.01354e-06
5.01352e-06
5.01373e-06
5.02008e-06
5.02161e-06
5.0216e-06
5.01253e-06
4.99959e-06
4.99959e-06
4.99959e-06
4.99959e-06
5.01041e-06
5.01411e-06
5.01411e-06
4.99959e-06
4.99959e-06
4.99959e-06
4.99959e-06
4.99959e-06
4.99959e-06
5.01168e-06
5.02098e-06
5.02253e-06
5.01354e-06
4.99959e-06
4.99959e-06
4.99959e-06
4.99959e-06
4.99959e-06
4.99959e-06
5.01095e-06
5.01999e-06
5.02192e-06
5.01352e-06
4.99959e-06
4.99959e-06
4.99959e-06
4.99959e-06
4.99959e-06
4.99959e-06
5.01089e-06
5.01512e-06
5.01373e-06
4.99959e-06
4.99959e-06
4.99959e-06
4.99959e-06
4.99959e-06
4.99959e-06
5.01116e-06
5.02039e-06
5.02008e-06
5.01041e-06
4.99959e-06
4.99959e-06
4.99959e-06
4.99959e-06
5.00822e-06
5.01297e-06
5.02154e-06
5.02161e-06
5.01411e-06
5.01168e-06
5.01096e-06
5.01089e-06
5.01116e-06
5.01297e-06
5.01894e-06
5.02098e-06
5.02e-06
5.01512e-06
5.02039e-06
5.02154e-06
4.94941e-06
4.9488e-06
4.94848e-06
4.94099e-06
4.94042e-06
4.9404e-06
4.94061e-06
4.94696e-06
4.94849e-06
4.94848e-06
4.93941e-06
4.92647e-06
4.92647e-06
4.92647e-06
4.92647e-06
4.93729e-06
4.94099e-06
4.94099e-06
4.92646e-06
4.92646e-06
4.92647e-06
4.92647e-06
4.92647e-06
4.92647e-06
4.93856e-06
4.94786e-06
4.94942e-06
4.94042e-06
4.92646e-06
4.92646e-06
4.92647e-06
4.92647e-06
4.92647e-06
4.92647e-06
4.93784e-06
4.94688e-06
4.94882e-06
4.9404e-06
4.92646e-06
4.92646e-06
4.92647e-06
4.92647e-06
4.92647e-06
4.92647e-06
4.93777e-06
4.942e-06
4.94061e-06
4.92646e-06
4.92646e-06
4.92647e-06
4.92647e-06
4.92647e-06
4.92647e-06
4.93804e-06
4.94727e-06
4.94696e-06
4.93729e-06
4.92647e-06
4.92647e-06
4.92647e-06
4.92647e-06
4.9351e-06
4.93985e-06
4.94842e-06
4.94848e-06
4.94099e-06
4.93856e-06
4.93784e-06
4.93778e-06
4.93804e-06
4.93985e-06
4.94582e-06
4.94786e-06
4.94688e-06
4.94201e-06
4.94727e-06
4.94842e-06
4.87629e-06
4.87568e-06
4.87536e-06
4.86788e-06
4.8673e-06
4.86728e-06
4.86749e-06
4.87384e-06
4.87537e-06
4.87536e-06
4.8663e-06
4.85335e-06
4.85335e-06
4.85335e-06
4.85335e-06
4.86417e-06
4.86787e-06
4.86787e-06
4.85335e-06
4.85335e-06
4.85335e-06
4.85335e-06
4.85335e-06
4.85335e-06
4.86544e-06
4.87474e-06
4.87627e-06
4.86729e-06
4.85335e-06
4.85335e-06
4.85335e-06
4.85335e-06
4.85335e-06
4.85335e-06
4.86472e-06
4.87376e-06
4.87556e-06
4.86727e-06
4.85335e-06
4.85335e-06
4.85335e-06
4.85335e-06
4.85335e-06
4.85335e-06
4.86466e-06
4.86889e-06
4.86748e-06
4.85335e-06
4.85335e-06
4.85335e-06
4.85335e-06
4.85335e-06
4.85335e-06
4.86493e-06
4.87416e-06
4.87383e-06
4.86417e-06
4.85335e-06
4.85335e-06
4.85335e-06
4.85335e-06
4.86198e-06
4.86673e-06
4.8753e-06
4.87536e-06
4.86786e-06
4.86544e-06
4.86471e-06
4.86465e-06
4.86492e-06
4.86673e-06
4.8727e-06
4.87473e-06
4.87374e-06
4.86887e-06
4.87415e-06
4.8753e-06
4.80317e-06
4.80256e-06
4.80224e-06
4.79476e-06
4.79418e-06
4.79416e-06
4.79437e-06
4.80072e-06
4.80225e-06
4.80225e-06
4.79318e-06
4.78023e-06
4.78023e-06
4.78023e-06
4.78023e-06
4.79105e-06
4.79475e-06
4.79477e-06
4.78023e-06
4.78023e-06
4.78023e-06
4.78023e-06
4.78023e-06
4.78023e-06
4.79232e-06
4.80162e-06
4.80324e-06
4.7942e-06
4.78023e-06
4.78023e-06
4.78023e-06
4.78023e-06
4.78023e-06
4.78023e-06
4.79159e-06
4.80063e-06
4.80262e-06
4.79418e-06
4.78023e-06
4.78023e-06
4.78023e-06
4.78023e-06
4.78023e-06
4.78023e-06
4.79153e-06
4.79576e-06
4.79438e-06
4.78023e-06
4.78023e-06
4.78023e-06
4.78023e-06
4.78023e-06
4.78023e-06
4.7918e-06
4.80103e-06
4.80073e-06
4.79105e-06
4.78023e-06
4.78023e-06
4.78023e-06
4.78023e-06
4.78885e-06
4.79361e-06
4.80218e-06
4.80225e-06
4.79475e-06
4.79232e-06
4.79159e-06
4.79153e-06
4.7918e-06
4.79361e-06
4.79958e-06
4.80162e-06
4.80063e-06
4.79576e-06
4.80103e-06
4.80218e-06
4.73005e-06
4.72944e-06
4.72912e-06
4.72163e-06
4.72106e-06
4.72104e-06
4.72125e-06
4.7276e-06
4.72912e-06
4.72912e-06
4.72005e-06
4.70711e-06
4.7071e-06
4.7071e-06
4.7071e-06
4.71793e-06
4.72162e-06
4.72163e-06
4.70711e-06
4.70711e-06
4.7071e-06
4.7071e-06
4.7071e-06
4.7071e-06
4.71919e-06
4.7285e-06
4.73005e-06
4.72106e-06
4.70711e-06
4.70711e-06
4.70711e-06
4.7071e-06
4.7071e-06
4.7071e-06
4.71847e-06
4.72751e-06
4.72943e-06
4.72104e-06
4.70711e-06
4.70711e-06
4.70711e-06
4.7071e-06
4.7071e-06
4.7071e-06
4.71841e-06
4.72263e-06
4.72125e-06
4.70711e-06
4.70711e-06
4.70711e-06
4.7071e-06
4.7071e-06
4.7071e-06
4.71868e-06
4.7279e-06
4.7276e-06
4.71793e-06
4.70711e-06
4.70711e-06
4.70711e-06
4.7071e-06
4.71573e-06
4.72048e-06
4.72905e-06
4.72913e-06
4.72163e-06
4.7192e-06
4.71847e-06
4.71841e-06
4.71868e-06
4.72048e-06
4.72645e-06
4.7285e-06
4.72751e-06
4.72264e-06
4.7279e-06
4.72905e-06
4.65692e-06
4.65631e-06
4.656e-06
4.64851e-06
4.64793e-06
4.64792e-06
4.64812e-06
4.65448e-06
4.656e-06
4.65599e-06
4.64693e-06
4.63398e-06
4.63398e-06
4.63398e-06
4.63398e-06
4.64481e-06
4.6485e-06
4.64851e-06
4.63398e-06
4.63398e-06
4.63398e-06
4.63398e-06
4.63398e-06
4.63398e-06
4.64607e-06
4.65537e-06
4.65692e-06
4.64793e-06
4.63398e-06
4.63398e-06
4.63398e-06
4.63398e-06
4.63398e-06
4.63398e-06
4.64535e-06
4.65439e-06
4.6563e-06
4.64791e-06
4.63398e-06
4.63398e-06
4.63398e-06
4.63398e-06
4.63398e-06
4.63398e-06
4.64529e-06
4.64952e-06
4.64812e-06
4.63398e-06
4.63398e-06
4.63398e-06
4.63398e-06
4.63398e-06
4.63398e-06
4.64556e-06
4.65479e-06
4.65448e-06
4.64481e-06
4.63398e-06
4.63398e-06
4.63398e-06
4.63398e-06
4.64261e-06
4.64736e-06
4.65593e-06
4.656e-06
4.6485e-06
4.64607e-06