/*--------------------------------*- C++ -*----------------------------------*\
| =========                 |                                                 |
| \\      /  F ield         | OpenFOAM: The Open Source CFD Toolbox           |
|  \\    /   O peration     | Version:  v2012                                 |
|   \\  /    A nd           | Website:  www.openfoam.com                      |
|    \\/     M anipulation  |                                                 |
\*---------------------------------------------------------------------------*/
FoamFile
{
    version     2.0;
    format      ascii;
    class       volScalarField;
    location    "16.5";
    object      p;
}
// * * * * * * * * * * * * * * * * * * * * * * * * * * * * * * * * * * * * * //

dimensions      [0 2 -2 0 0 0 0];


internalField   nonuniform List<scalar> 
244288
(
1.45121e-06
1.45131e-06
1.45128e-06
1.4512e-06
1.45115e-06
1.45121e-06
1.45128e-06
1.45131e-06
1.45134e-06
1.45112e-06
1.45087e-06
1.45078e-06
1.4509e-06
1.45115e-06
1.45135e-06
1.45128e-06
1.45112e-06
1.45072e-06
1.45039e-06
1.45027e-06
1.45042e-06
1.45077e-06
1.45116e-06
1.45127e-06
1.45119e-06
1.45087e-06
1.45039e-06
1.45001e-06
1.44988e-06
1.45004e-06
1.45045e-06
1.45093e-06
1.45121e-06
1.45121e-06
1.45115e-06
1.45078e-06
1.45027e-06
1.44988e-06
1.44975e-06
1.44992e-06
1.45033e-06
1.45084e-06
1.45116e-06
1.45121e-06
1.4509e-06
1.45042e-06
1.45004e-06
1.44992e-06
1.45008e-06
1.45048e-06
1.45095e-06
1.45122e-06
1.45128e-06
1.45115e-06
1.45077e-06
1.45045e-06
1.45033e-06
1.45048e-06
1.45082e-06
1.45119e-06
1.45127e-06
1.45135e-06
1.45116e-06
1.45093e-06
1.45084e-06
1.45095e-06
1.45119e-06
1.45135e-06
1.45127e-06
1.45121e-06
1.45116e-06
1.45122e-06
1.45127e-06
1.4296e-06
1.42926e-06
1.42911e-06
1.42771e-06
1.42761e-06
1.42761e-06
1.42764e-06
1.42906e-06
1.42917e-06
1.42911e-06
1.42724e-06
1.42489e-06
1.42489e-06
1.42489e-06
1.42489e-06
1.42732e-06
1.42783e-06
1.42771e-06
1.42489e-06
1.42485e-06
1.42489e-06
1.42489e-06
1.42485e-06
1.42489e-06
1.42777e-06
1.42931e-06
1.4296e-06
1.42761e-06
1.42489e-06
1.42489e-06
1.42494e-06
1.42494e-06
1.42489e-06
1.42489e-06
1.42771e-06
1.42907e-06
1.42926e-06
1.42761e-06
1.42489e-06
1.42489e-06
1.42494e-06
1.42494e-06
1.42489e-06
1.42489e-06
1.42768e-06
1.42794e-06
1.42764e-06
1.42489e-06
1.42485e-06
1.42489e-06
1.42489e-06
1.42485e-06
1.42489e-06
1.42774e-06
1.42922e-06
1.42906e-06
1.42732e-06
1.42489e-06
1.42489e-06
1.42489e-06
1.42489e-06
1.42734e-06
1.42784e-06
1.42933e-06
1.42917e-06
1.42783e-06
1.42777e-06
1.42771e-06
1.42768e-06
1.42774e-06
1.42784e-06
1.42904e-06
1.42931e-06
1.42907e-06
1.42794e-06
1.42922e-06
1.42933e-06
1.41434e-06
1.41422e-06
1.41412e-06
1.41263e-06
1.41255e-06
1.41251e-06
1.4126e-06
1.41404e-06
1.41422e-06
1.41412e-06
1.41217e-06
1.40967e-06
1.40967e-06
1.40967e-06
1.40967e-06
1.41225e-06
1.41283e-06
1.41263e-06
1.40967e-06
1.40965e-06
1.40965e-06
1.40965e-06
1.40965e-06
1.40967e-06
1.41274e-06
1.4143e-06
1.41434e-06
1.41255e-06
1.40967e-06
1.40965e-06
1.40966e-06
1.40966e-06
1.40965e-06
1.40967e-06
1.41268e-06
1.41406e-06
1.41422e-06
1.41251e-06
1.40967e-06
1.40965e-06
1.40966e-06
1.40966e-06
1.40965e-06
1.40967e-06
1.41265e-06
1.41293e-06
1.4126e-06
1.40967e-06
1.40965e-06
1.40965e-06
1.40965e-06
1.40965e-06
1.40967e-06
1.41271e-06
1.41423e-06
1.41404e-06
1.41225e-06
1.40967e-06
1.40967e-06
1.40967e-06
1.40967e-06
1.4123e-06
1.4128e-06
1.41433e-06
1.41422e-06
1.41283e-06
1.41274e-06
1.41268e-06
1.41265e-06
1.41271e-06
1.4128e-06
1.4141e-06
1.4143e-06
1.41406e-06
1.41293e-06
1.41423e-06
1.41433e-06
1.39916e-06
1.39904e-06
1.39894e-06
1.39744e-06
1.39735e-06
1.39731e-06
1.3974e-06
1.39886e-06
1.39904e-06
1.39894e-06
1.39697e-06
1.39446e-06
1.39446e-06
1.39446e-06
1.39446e-06
1.39704e-06
1.39765e-06
1.39744e-06
1.39446e-06
1.39445e-06
1.39445e-06
1.39445e-06
1.39445e-06
1.39446e-06
1.39755e-06
1.39912e-06
1.39916e-06
1.39735e-06
1.39446e-06
1.39445e-06
1.39446e-06
1.39446e-06
1.39445e-06
1.39446e-06
1.3975e-06
1.39889e-06
1.39904e-06
1.39731e-06
1.39446e-06
1.39445e-06
1.39446e-06
1.39446e-06
1.39445e-06
1.39446e-06
1.39747e-06
1.39776e-06
1.3974e-06
1.39446e-06
1.39445e-06
1.39445e-06
1.39445e-06
1.39445e-06
1.39446e-06
1.39753e-06
1.39906e-06
1.39886e-06
1.39704e-06
1.39446e-06
1.39446e-06
1.39446e-06
1.39446e-06
1.39713e-06
1.39763e-06
1.39915e-06
1.39904e-06
1.39765e-06
1.39755e-06
1.3975e-06
1.39747e-06
1.39753e-06
1.39763e-06
1.39893e-06
1.39912e-06
1.39889e-06
1.39776e-06
1.39906e-06
1.39915e-06
1.38397e-06
1.38385e-06
1.38374e-06
1.38224e-06
1.38215e-06
1.3821e-06
1.3822e-06
1.38366e-06
1.38384e-06
1.38374e-06
1.38177e-06
1.37925e-06
1.37925e-06
1.37925e-06
1.37925e-06
1.38184e-06
1.38245e-06
1.38224e-06
1.37925e-06
1.37925e-06
1.37925e-06
1.37925e-06
1.37925e-06
1.37925e-06
1.38235e-06
1.38393e-06
1.38397e-06
1.38215e-06
1.37925e-06
1.37925e-06
1.37926e-06
1.37926e-06
1.37925e-06
1.37925e-06
1.38231e-06
1.38369e-06
1.38385e-06
1.3821e-06
1.37925e-06
1.37925e-06
1.37926e-06
1.37926e-06
1.37925e-06
1.37925e-06
1.38228e-06
1.38256e-06
1.3822e-06
1.37925e-06
1.37925e-06
1.37925e-06
1.37925e-06
1.37925e-06
1.37925e-06
1.38233e-06
1.38386e-06
1.38366e-06
1.38184e-06
1.37925e-06
1.37925e-06
1.37925e-06
1.37925e-06
1.38194e-06
1.38243e-06
1.38395e-06
1.38384e-06
1.38245e-06
1.38235e-06
1.38231e-06
1.38228e-06
1.38233e-06
1.38243e-06
1.38373e-06
1.38393e-06
1.38369e-06
1.38256e-06
1.38386e-06
1.38395e-06
1.36877e-06
1.36865e-06
1.36854e-06
1.36704e-06
1.36695e-06
1.3669e-06
1.367e-06
1.36846e-06
1.36864e-06
1.36854e-06
1.36657e-06
1.36405e-06
1.36405e-06
1.36405e-06
1.36405e-06
1.36664e-06
1.36725e-06
1.36704e-06
1.36405e-06
1.36405e-06
1.36405e-06
1.36405e-06
1.36405e-06
1.36405e-06
1.36715e-06
1.36873e-06
1.36877e-06
1.36695e-06
1.36405e-06
1.36405e-06
1.36405e-06
1.36405e-06
1.36405e-06
1.36405e-06
1.36711e-06
1.36849e-06
1.36865e-06
1.3669e-06
1.36405e-06
1.36405e-06
1.36405e-06
1.36405e-06
1.36405e-06
1.36405e-06
1.36708e-06
1.36736e-06
1.367e-06
1.36405e-06
1.36405e-06
1.36405e-06
1.36405e-06
1.36405e-06
1.36405e-06
1.36713e-06
1.36867e-06
1.36846e-06
1.36664e-06
1.36405e-06
1.36405e-06
1.36405e-06
1.36405e-06
1.36674e-06
1.36723e-06
1.36875e-06
1.36864e-06
1.36725e-06
1.36715e-06
1.36711e-06
1.36708e-06
1.36713e-06
1.36723e-06
1.36853e-06
1.36873e-06
1.36849e-06
1.36736e-06
1.36867e-06
1.36875e-06
1.35357e-06
1.35345e-06
1.35334e-06
1.35184e-06
1.35175e-06
1.3517e-06
1.3518e-06
1.35326e-06
1.35344e-06
1.35334e-06
1.35137e-06
1.34885e-06
1.34885e-06
1.34885e-06
1.34885e-06
1.35144e-06
1.35205e-06
1.35184e-06
1.34885e-06
1.34885e-06
1.34885e-06
1.34885e-06
1.34885e-06
1.34885e-06
1.35195e-06
1.35353e-06
1.35357e-06
1.35175e-06
1.34885e-06
1.34885e-06
1.34885e-06
1.34885e-06
1.34885e-06
1.34885e-06
1.35191e-06
1.35329e-06
1.35345e-06
1.3517e-06
1.34885e-06
1.34885e-06
1.34885e-06
1.34885e-06
1.34885e-06
1.34885e-06
1.35188e-06
1.35216e-06
1.3518e-06
1.34885e-06
1.34885e-06
1.34885e-06
1.34885e-06
1.34885e-06
1.34885e-06
1.35193e-06
1.35347e-06
1.35326e-06
1.35144e-06
1.34885e-06
1.34885e-06
1.34885e-06
1.34885e-06
1.35154e-06
1.35203e-06
1.35355e-06
1.35344e-06
1.35205e-06
1.35195e-06
1.35191e-06
1.35188e-06
1.35193e-06
1.35203e-06
1.35333e-06
1.35353e-06
1.35329e-06
1.35216e-06
1.35347e-06
1.35355e-06
1.33837e-06
1.33825e-06
1.33814e-06
1.33664e-06
1.33655e-06
1.3365e-06
1.3366e-06
1.33806e-06
1.33824e-06
1.33814e-06
1.33617e-06
1.33365e-06
1.33365e-06
1.33365e-06
1.33365e-06
1.33624e-06
1.33685e-06
1.33664e-06
1.33365e-06
1.33365e-06
1.33365e-06
1.33365e-06
1.33365e-06
1.33365e-06
1.33675e-06
1.33833e-06
1.33837e-06
1.33655e-06
1.33365e-06
1.33365e-06
1.33365e-06
1.33365e-06
1.33365e-06
1.33365e-06
1.33671e-06
1.33809e-06
1.33825e-06
1.3365e-06
1.33365e-06
1.33365e-06
1.33365e-06
1.33365e-06
1.33365e-06
1.33365e-06
1.33668e-06
1.33696e-06
1.3366e-06
1.33365e-06
1.33365e-06
1.33365e-06
1.33365e-06
1.33365e-06
1.33365e-06
1.33674e-06
1.33827e-06
1.33806e-06
1.33624e-06
1.33365e-06
1.33365e-06
1.33365e-06
1.33365e-06
1.33634e-06
1.33683e-06
1.33835e-06
1.33824e-06
1.33685e-06
1.33675e-06
1.33671e-06
1.33668e-06
1.33674e-06
1.33683e-06
1.33813e-06
1.33833e-06
1.33809e-06
1.33696e-06
1.33827e-06
1.33835e-06
1.32317e-06
1.32305e-06
1.32294e-06
1.32144e-06
1.32135e-06
1.3213e-06
1.3214e-06
1.32286e-06
1.32304e-06
1.32294e-06
1.32097e-06
1.31845e-06
1.31845e-06
1.31845e-06
1.31845e-06
1.32104e-06
1.32165e-06
1.32144e-06
1.31845e-06
1.31845e-06
1.31845e-06
1.31845e-06
1.31845e-06
1.31845e-06
1.32155e-06
1.32313e-06
1.32317e-06
1.32135e-06
1.31845e-06
1.31845e-06
1.31845e-06
1.31845e-06
1.31845e-06
1.31845e-06
1.32151e-06
1.32289e-06
1.32305e-06
1.3213e-06
1.31845e-06
1.31845e-06
1.31845e-06
1.31845e-06
1.31845e-06
1.31845e-06
1.32148e-06
1.32176e-06
1.3214e-06
1.31845e-06
1.31845e-06
1.31845e-06
1.31845e-06
1.31845e-06
1.31845e-06
1.32154e-06
1.32307e-06
1.32286e-06
1.32104e-06
1.31845e-06
1.31845e-06
1.31845e-06
1.31845e-06
1.32114e-06
1.32163e-06
1.32315e-06
1.32304e-06
1.32165e-06
1.32155e-06
1.32151e-06
1.32148e-06
1.32154e-06
1.32163e-06
1.32293e-06
1.32313e-06
1.32289e-06
1.32176e-06
1.32307e-06
1.32315e-06
1.30797e-06
1.30785e-06
1.30774e-06
1.30624e-06
1.30615e-06
1.30611e-06
1.3062e-06
1.30766e-06
1.30784e-06
1.30774e-06
1.30577e-06
1.30325e-06
1.30325e-06
1.30325e-06
1.30325e-06
1.30584e-06
1.30645e-06
1.30624e-06
1.30325e-06
1.30325e-06
1.30326e-06
1.30326e-06
1.30326e-06
1.30326e-06
1.30635e-06
1.30793e-06
1.30797e-06
1.30615e-06
1.30326e-06
1.30326e-06
1.30326e-06
1.30326e-06
1.30326e-06
1.30326e-06
1.30631e-06
1.3077e-06
1.30785e-06
1.30611e-06
1.30325e-06
1.30326e-06
1.30326e-06
1.30326e-06
1.30326e-06
1.30326e-06
1.30628e-06
1.30656e-06
1.30621e-06
1.30326e-06
1.30326e-06
1.30326e-06
1.30326e-06
1.30326e-06
1.30326e-06
1.30634e-06
1.30787e-06
1.30766e-06
1.30584e-06
1.30326e-06
1.30326e-06
1.30326e-06
1.30326e-06
1.30594e-06
1.30643e-06
1.30795e-06
1.30784e-06
1.30645e-06
1.30635e-06
1.30631e-06
1.30628e-06
1.30634e-06
1.30643e-06
1.30773e-06
1.30793e-06
1.3077e-06
1.30656e-06
1.30787e-06
1.30795e-06
1.29277e-06
1.29265e-06
1.29254e-06
1.29104e-06
1.29095e-06
1.29091e-06
1.29101e-06
1.29246e-06
1.29264e-06
1.29254e-06
1.29057e-06
1.28806e-06
1.28806e-06
1.28806e-06
1.28806e-06
1.29064e-06
1.29125e-06
1.29104e-06
1.28806e-06
1.28806e-06
1.28806e-06
1.28806e-06
1.28806e-06
1.28806e-06
1.29116e-06
1.29273e-06
1.29277e-06
1.29095e-06
1.28806e-06
1.28806e-06
1.28806e-06
1.28806e-06
1.28806e-06
1.28806e-06
1.29111e-06
1.2925e-06
1.29265e-06
1.29091e-06
1.28806e-06
1.28806e-06
1.28806e-06
1.28806e-06
1.28806e-06
1.28806e-06
1.29108e-06
1.29137e-06
1.29101e-06
1.28806e-06
1.28806e-06
1.28806e-06
1.28806e-06
1.28806e-06
1.28806e-06
1.29114e-06
1.29267e-06
1.29246e-06
1.29064e-06
1.28806e-06
1.28806e-06
1.28806e-06
1.28806e-06
1.29074e-06
1.29123e-06
1.29275e-06
1.29264e-06
1.29125e-06
1.29116e-06
1.29111e-06
1.29108e-06
1.29114e-06
1.29123e-06
1.29253e-06
1.29273e-06
1.2925e-06
1.29137e-06
1.29267e-06
1.29275e-06
1.27757e-06
1.27745e-06
1.27734e-06
1.27584e-06
1.27575e-06
1.27571e-06
1.27581e-06
1.27726e-06
1.27745e-06
1.27734e-06
1.27537e-06
1.27286e-06
1.27286e-06
1.27286e-06
1.27286e-06
1.27544e-06
1.27605e-06
1.27584e-06
1.27286e-06
1.27286e-06
1.27286e-06
1.27286e-06
1.27286e-06
1.27286e-06
1.27596e-06
1.27753e-06
1.27757e-06
1.27575e-06
1.27286e-06
1.27286e-06
1.27286e-06
1.27286e-06
1.27286e-06
1.27286e-06
1.27591e-06
1.2773e-06
1.27745e-06
1.27571e-06
1.27286e-06
1.27286e-06
1.27286e-06
1.27286e-06
1.27286e-06
1.27286e-06
1.27588e-06
1.27617e-06
1.27581e-06
1.27286e-06
1.27286e-06
1.27286e-06
1.27286e-06
1.27286e-06
1.27286e-06
1.27594e-06
1.27747e-06
1.27726e-06
1.27544e-06
1.27286e-06
1.27286e-06
1.27286e-06
1.27286e-06
1.27554e-06
1.27604e-06
1.27755e-06
1.27745e-06
1.27605e-06
1.27596e-06
1.27591e-06
1.27588e-06
1.27594e-06
1.27604e-06
1.27733e-06
1.27753e-06
1.2773e-06
1.27617e-06
1.27747e-06
1.27755e-06
1.26237e-06
1.26225e-06
1.26214e-06
1.26064e-06
1.26055e-06
1.26051e-06
1.26061e-06
1.26206e-06
1.26225e-06
1.26214e-06
1.26017e-06
1.25766e-06
1.25766e-06
1.25766e-06
1.25766e-06
1.26024e-06
1.26085e-06
1.26064e-06
1.25766e-06
1.25766e-06
1.25766e-06
1.25766e-06
1.25766e-06
1.25766e-06
1.26076e-06
1.26233e-06
1.26237e-06
1.26055e-06
1.25766e-06
1.25766e-06
1.25766e-06
1.25766e-06
1.25766e-06
1.25766e-06
1.26071e-06
1.2621e-06
1.26225e-06
1.26051e-06
1.25766e-06
1.25766e-06
1.25766e-06
1.25766e-06
1.25766e-06
1.25766e-06
1.26068e-06
1.26097e-06
1.26061e-06
1.25766e-06
1.25766e-06
1.25766e-06
1.25766e-06
1.25766e-06
1.25766e-06
1.26074e-06
1.26227e-06
1.26206e-06
1.26024e-06
1.25766e-06
1.25766e-06
1.25766e-06
1.25766e-06
1.26034e-06
1.26084e-06
1.26235e-06
1.26225e-06
1.26085e-06
1.26076e-06
1.26071e-06
1.26068e-06
1.26074e-06
1.26084e-06
1.26213e-06
1.26233e-06
1.2621e-06
1.26097e-06
1.26227e-06
1.26235e-06
1.24717e-06
1.24705e-06
1.24695e-06
1.24544e-06
1.24535e-06
1.24531e-06
1.24541e-06
1.24687e-06
1.24705e-06
1.24694e-06
1.24497e-06
1.24246e-06
1.24246e-06
1.24246e-06
1.24246e-06
1.24504e-06
1.24565e-06
1.24544e-06
1.24246e-06
1.24246e-06
1.24246e-06
1.24246e-06
1.24246e-06
1.24246e-06
1.24556e-06
1.24713e-06
1.24718e-06
1.24535e-06
1.24246e-06
1.24246e-06
1.24246e-06
1.24246e-06
1.24246e-06
1.24246e-06
1.24551e-06
1.2469e-06
1.24706e-06
1.24531e-06
1.24246e-06
1.24246e-06
1.24246e-06
1.24246e-06
1.24246e-06
1.24246e-06
1.24548e-06
1.24577e-06
1.24541e-06
1.24246e-06
1.24246e-06
1.24246e-06
1.24246e-06
1.24246e-06
1.24246e-06
1.24554e-06
1.24707e-06
1.24686e-06
1.24504e-06
1.24246e-06
1.24246e-06
1.24246e-06
1.24246e-06
1.24514e-06
1.24564e-06
1.24715e-06
1.24705e-06
1.24565e-06
1.24556e-06
1.24551e-06
1.24548e-06
1.24554e-06
1.24564e-06
1.24693e-06
1.24713e-06
1.2469e-06
1.24577e-06
1.24707e-06
1.24715e-06
1.23197e-06
1.23185e-06
1.23175e-06
1.23024e-06
1.23015e-06
1.23011e-06
1.23021e-06
1.23167e-06
1.23185e-06
1.23175e-06
1.22977e-06
1.22726e-06
1.22726e-06
1.22726e-06
1.22726e-06
1.22984e-06
1.23045e-06
1.23024e-06
1.22726e-06
1.22726e-06
1.22726e-06
1.22726e-06
1.22726e-06
1.22726e-06
1.23036e-06
1.23193e-06
1.23198e-06
1.23015e-06
1.22726e-06
1.22726e-06
1.22726e-06
1.22726e-06
1.22726e-06
1.22726e-06
1.23031e-06
1.2317e-06
1.23186e-06
1.23011e-06
1.22726e-06
1.22726e-06
1.22726e-06
1.22726e-06
1.22726e-06
1.22726e-06
1.23028e-06
1.23057e-06
1.23021e-06
1.22726e-06
1.22726e-06
1.22726e-06
1.22726e-06
1.22726e-06
1.22726e-06
1.23034e-06
1.23187e-06
1.23167e-06
1.22984e-06
1.22726e-06
1.22726e-06
1.22726e-06
1.22726e-06
1.22995e-06
1.23044e-06
1.23195e-06
1.23185e-06
1.23045e-06
1.23036e-06
1.23031e-06
1.23028e-06
1.23034e-06
1.23044e-06
1.23174e-06
1.23193e-06
1.2317e-06
1.23057e-06
1.23187e-06
1.23195e-06
1.21678e-06
1.21666e-06
1.21655e-06
1.21504e-06
1.21495e-06
1.21491e-06
1.21501e-06
1.21647e-06
1.21665e-06
1.21655e-06
1.21457e-06
1.21206e-06
1.21206e-06
1.21206e-06
1.21206e-06
1.21464e-06
1.21526e-06
1.21504e-06
1.21206e-06
1.21206e-06
1.21206e-06
1.21206e-06
1.21206e-06
1.21206e-06
1.21516e-06
1.21673e-06
1.21678e-06
1.21495e-06
1.21206e-06
1.21206e-06
1.21206e-06
1.21206e-06
1.21206e-06
1.21206e-06
1.21511e-06
1.2165e-06
1.21666e-06
1.21491e-06
1.21206e-06
1.21206e-06
1.21206e-06
1.21206e-06
1.21206e-06
1.21206e-06
1.21508e-06
1.21537e-06
1.21501e-06
1.21206e-06
1.21206e-06
1.21206e-06
1.21206e-06
1.21206e-06
1.21206e-06
1.21514e-06
1.21667e-06
1.21647e-06
1.21464e-06
1.21206e-06
1.21206e-06
1.21206e-06
1.21206e-06
1.21475e-06
1.21524e-06
1.21676e-06
1.21665e-06
1.21526e-06
1.21516e-06
1.21511e-06
1.21508e-06
1.21514e-06
1.21524e-06
1.21654e-06
1.21673e-06
1.2165e-06
1.21537e-06
1.21667e-06
1.21675e-06
1.20158e-06
1.20146e-06
1.20135e-06
1.19984e-06
1.19975e-06
1.19971e-06
1.19981e-06
1.20127e-06
1.20145e-06
1.20135e-06
1.19937e-06
1.19686e-06
1.19686e-06
1.19686e-06
1.19686e-06
1.19944e-06
1.20006e-06
1.19984e-06
1.19686e-06
1.19686e-06
1.19686e-06
1.19686e-06
1.19686e-06
1.19686e-06
1.19996e-06
1.20153e-06
1.20158e-06
1.19975e-06
1.19686e-06
1.19686e-06
1.19686e-06
1.19686e-06
1.19686e-06
1.19686e-06
1.19991e-06
1.2013e-06
1.20146e-06
1.19971e-06
1.19686e-06
1.19686e-06
1.19686e-06
1.19686e-06
1.19686e-06
1.19686e-06
1.19988e-06
1.20017e-06
1.19981e-06
1.19686e-06
1.19686e-06
1.19686e-06
1.19686e-06
1.19686e-06
1.19686e-06
1.19994e-06
1.20147e-06
1.20127e-06
1.19944e-06
1.19686e-06
1.19686e-06
1.19686e-06
1.19686e-06
1.19955e-06
1.20004e-06
1.20156e-06
1.20145e-06
1.20006e-06
1.19996e-06
1.19991e-06
1.19988e-06
1.19994e-06
1.20004e-06
1.20134e-06
1.20153e-06
1.2013e-06
1.20017e-06
1.20147e-06
1.20156e-06
1.18638e-06
1.18626e-06
1.18615e-06
1.18464e-06
1.18455e-06
1.18451e-06
1.18461e-06
1.18607e-06
1.18625e-06
1.18615e-06
1.18417e-06
1.18166e-06
1.18166e-06
1.18166e-06
1.18166e-06
1.18424e-06
1.18486e-06
1.18464e-06
1.18166e-06
1.18166e-06
1.18166e-06
1.18166e-06
1.18166e-06
1.18166e-06
1.18476e-06
1.18634e-06
1.18638e-06
1.18455e-06
1.18166e-06
1.18166e-06
1.18166e-06
1.18166e-06
1.18166e-06
1.18166e-06
1.18472e-06
1.1861e-06
1.18626e-06
1.18451e-06
1.18166e-06
1.18166e-06
1.18166e-06
1.18166e-06
1.18166e-06
1.18166e-06
1.18469e-06
1.18497e-06
1.18461e-06
1.18166e-06
1.18166e-06
1.18166e-06
1.18166e-06
1.18166e-06
1.18166e-06
1.18474e-06
1.18628e-06
1.18607e-06
1.18424e-06
1.18166e-06
1.18166e-06
1.18166e-06
1.18166e-06
1.18435e-06
1.18484e-06
1.18636e-06
1.18625e-06
1.18486e-06
1.18476e-06
1.18472e-06
1.18469e-06
1.18474e-06
1.18484e-06
1.18614e-06
1.18634e-06
1.1861e-06
1.18497e-06
1.18628e-06
1.18636e-06
1.17118e-06
1.17106e-06
1.17095e-06
1.16944e-06
1.16935e-06
1.16931e-06
1.16941e-06
1.17087e-06
1.17105e-06
1.17095e-06
1.16898e-06
1.16646e-06
1.16646e-06
1.16646e-06
1.16646e-06
1.16904e-06
1.16966e-06
1.16944e-06
1.16646e-06
1.16646e-06
1.16646e-06
1.16646e-06
1.16646e-06
1.16646e-06
1.16956e-06
1.17114e-06
1.17118e-06
1.16935e-06
1.16646e-06
1.16646e-06
1.16646e-06
1.16646e-06
1.16646e-06
1.16646e-06
1.16952e-06
1.1709e-06
1.17106e-06
1.16931e-06
1.16646e-06
1.16646e-06
1.16646e-06
1.16646e-06
1.16646e-06
1.16646e-06
1.16949e-06
1.16977e-06
1.16941e-06
1.16646e-06
1.16646e-06
1.16646e-06
1.16646e-06
1.16646e-06
1.16646e-06
1.16954e-06
1.17108e-06
1.17087e-06
1.16904e-06
1.16646e-06
1.16646e-06
1.16646e-06
1.16646e-06
1.16915e-06
1.16964e-06
1.17116e-06
1.17105e-06
1.16966e-06
1.16956e-06
1.16952e-06
1.16949e-06
1.16954e-06
1.16964e-06
1.17094e-06
1.17114e-06
1.1709e-06
1.16977e-06
1.17108e-06
1.17116e-06
1.15598e-06
1.15586e-06
1.15575e-06
1.15425e-06
1.15416e-06
1.15411e-06
1.15421e-06
1.15567e-06
1.15585e-06
1.15575e-06
1.15378e-06
1.15126e-06
1.15126e-06
1.15126e-06
1.15126e-06
1.15384e-06
1.15446e-06
1.15425e-06
1.15126e-06
1.15126e-06
1.15126e-06
1.15126e-06
1.15126e-06
1.15126e-06
1.15436e-06
1.15594e-06
1.15598e-06
1.15416e-06
1.15126e-06
1.15126e-06
1.15126e-06
1.15126e-06
1.15126e-06
1.15126e-06
1.15432e-06
1.1557e-06
1.15586e-06
1.15411e-06
1.15126e-06
1.15126e-06
1.15126e-06
1.15126e-06
1.15126e-06
1.15126e-06
1.15429e-06
1.15457e-06
1.15421e-06
1.15126e-06
1.15126e-06
1.15126e-06
1.15126e-06
1.15126e-06
1.15126e-06
1.15434e-06
1.15588e-06
1.15567e-06
1.15384e-06
1.15126e-06
1.15126e-06
1.15126e-06
1.15126e-06
1.15395e-06
1.15444e-06
1.15596e-06
1.15585e-06
1.15446e-06
1.15436e-06
1.15432e-06
1.15429e-06
1.15434e-06
1.15444e-06
1.15574e-06
1.15594e-06
1.1557e-06
1.15457e-06
1.15588e-06
1.15596e-06
1.14078e-06
1.14066e-06
1.14055e-06
1.13905e-06
1.13896e-06
1.13891e-06
1.13901e-06
1.14047e-06
1.14065e-06
1.14055e-06
1.13858e-06
1.13606e-06
1.13606e-06
1.13606e-06
1.13606e-06
1.13865e-06
1.13926e-06
1.13905e-06
1.13606e-06
1.13606e-06
1.13606e-06
1.13606e-06
1.13606e-06
1.13606e-06
1.13916e-06
1.14074e-06
1.14078e-06
1.13896e-06
1.13606e-06
1.13606e-06
1.13606e-06
1.13606e-06
1.13606e-06
1.13606e-06
1.13912e-06
1.1405e-06
1.14066e-06
1.13891e-06
1.13606e-06
1.13606e-06
1.13606e-06
1.13606e-06
1.13606e-06
1.13606e-06
1.13909e-06
1.13937e-06
1.13901e-06
1.13606e-06
1.13606e-06
1.13606e-06
1.13606e-06
1.13606e-06
1.13606e-06
1.13915e-06
1.14068e-06
1.14047e-06
1.13865e-06
1.13606e-06
1.13606e-06
1.13606e-06
1.13606e-06
1.13875e-06
1.13924e-06
1.14076e-06
1.14065e-06
1.13926e-06
1.13916e-06
1.13912e-06
1.13909e-06
1.13915e-06
1.13924e-06
1.14054e-06
1.14074e-06
1.1405e-06
1.13937e-06
1.14068e-06
1.14076e-06
1.12558e-06
1.12546e-06
1.12535e-06
1.12385e-06
1.12376e-06
1.12371e-06
1.12381e-06
1.12527e-06
1.12545e-06
1.12535e-06
1.12338e-06
1.12086e-06
1.12086e-06
1.12086e-06
1.12086e-06
1.12345e-06
1.12406e-06
1.12385e-06
1.12086e-06
1.12086e-06
1.12086e-06
1.12086e-06
1.12086e-06
1.12086e-06
1.12396e-06
1.12554e-06
1.12558e-06
1.12376e-06
1.12086e-06
1.12086e-06
1.12086e-06
1.12086e-06
1.12086e-06
1.12086e-06
1.12392e-06
1.1253e-06
1.12546e-06
1.12371e-06
1.12086e-06
1.12086e-06
1.12086e-06
1.12086e-06
1.12086e-06
1.12086e-06
1.12389e-06
1.12417e-06
1.12381e-06
1.12086e-06
1.12086e-06
1.12086e-06
1.12086e-06
1.12086e-06
1.12086e-06
1.12395e-06
1.12548e-06
1.12527e-06
1.12345e-06
1.12086e-06
1.12086e-06
1.12086e-06
1.12086e-06
1.12355e-06
1.12404e-06
1.12556e-06
1.12545e-06
1.12406e-06
1.12396e-06
1.12392e-06
1.12389e-06
1.12395e-06
1.12404e-06
1.12534e-06
1.12554e-06
1.12531e-06
1.12417e-06
1.12548e-06
1.12556e-06
1.11038e-06
1.11026e-06
1.11015e-06
1.10865e-06
1.10856e-06
1.10852e-06
1.10861e-06
1.11007e-06
1.11025e-06
1.11015e-06
1.10818e-06
1.10566e-06
1.10566e-06
1.10566e-06
1.10566e-06
1.10825e-06
1.10886e-06
1.10865e-06
1.10566e-06
1.10566e-06
1.10566e-06
1.10566e-06
1.10566e-06
1.10566e-06
1.10876e-06
1.11034e-06
1.11038e-06
1.10856e-06
1.10566e-06
1.10566e-06
1.10566e-06
1.10566e-06
1.10566e-06
1.10566e-06
1.10872e-06
1.11011e-06
1.11026e-06
1.10852e-06
1.10566e-06
1.10566e-06
1.10566e-06
1.10566e-06
1.10566e-06
1.10566e-06
1.10869e-06
1.10897e-06
1.10861e-06
1.10566e-06
1.10566e-06
1.10566e-06
1.10566e-06
1.10566e-06
1.10566e-06
1.10875e-06
1.11028e-06
1.11007e-06
1.10825e-06
1.10566e-06
1.10566e-06
1.10566e-06
1.10566e-06
1.10835e-06
1.10884e-06
1.11036e-06
1.11025e-06
1.10886e-06
1.10876e-06
1.10872e-06
1.10869e-06
1.10875e-06
1.10884e-06
1.11014e-06
1.11034e-06
1.11011e-06
1.10897e-06
1.11028e-06
1.11036e-06
1.09518e-06
1.09506e-06
1.09495e-06
1.09345e-06
1.09336e-06
1.09332e-06
1.09342e-06
1.09487e-06
1.09505e-06
1.09495e-06
1.09298e-06
1.09047e-06
1.09047e-06
1.09047e-06
1.09047e-06
1.09305e-06
1.09366e-06
1.09345e-06
1.09047e-06
1.09047e-06
1.09047e-06
1.09047e-06
1.09047e-06
1.09047e-06
1.09357e-06
1.09514e-06
1.09518e-06
1.09336e-06
1.09047e-06
1.09047e-06
1.09047e-06
1.09047e-06
1.09047e-06
1.09047e-06
1.09352e-06
1.09491e-06
1.09506e-06
1.09332e-06
1.09047e-06
1.09047e-06
1.09047e-06
1.09047e-06
1.09047e-06
1.09047e-06
1.09349e-06
1.09377e-06
1.09342e-06
1.09047e-06
1.09047e-06
1.09047e-06
1.09047e-06
1.09047e-06
1.09047e-06
1.09355e-06
1.09508e-06
1.09487e-06
1.09305e-06
1.09047e-06
1.09047e-06
1.09047e-06
1.09047e-06
1.09315e-06
1.09364e-06
1.09516e-06
1.09505e-06
1.09366e-06
1.09357e-06
1.09352e-06
1.09349e-06
1.09355e-06
1.09364e-06
1.09494e-06
1.09514e-06
1.09491e-06
1.09378e-06
1.09508e-06
1.09516e-06
1.07998e-06
1.07986e-06
1.07975e-06
1.07825e-06
1.07816e-06
1.07812e-06
1.07822e-06
1.07967e-06
1.07985e-06
1.07975e-06
1.07778e-06
1.07527e-06
1.07527e-06
1.07527e-06
1.07527e-06
1.07785e-06
1.07846e-06
1.07825e-06
1.07527e-06
1.07527e-06
1.07527e-06
1.07527e-06
1.07527e-06
1.07527e-06
1.07837e-06
1.07994e-06
1.07998e-06
1.07816e-06
1.07527e-06
1.07527e-06
1.07527e-06
1.07527e-06
1.07527e-06
1.07527e-06
1.07832e-06
1.07971e-06
1.07986e-06
1.07812e-06
1.07527e-06
1.07527e-06
1.07527e-06
1.07527e-06
1.07527e-06
1.07527e-06
1.07829e-06
1.07858e-06
1.07822e-06
1.07527e-06
1.07527e-06
1.07527e-06
1.07527e-06
1.07527e-06
1.07527e-06
1.07835e-06
1.07988e-06
1.07967e-06
1.07785e-06
1.07527e-06
1.07527e-06
1.07527e-06
1.07527e-06
1.07795e-06
1.07844e-06
1.07996e-06
1.07985e-06
1.07846e-06
1.07837e-06
1.07832e-06
1.07829e-06
1.07835e-06
1.07845e-06
1.07974e-06
1.07994e-06
1.0797e-06
1.07858e-06
1.07988e-06
1.07996e-06
1.06478e-06
1.06466e-06
1.06455e-06
1.06305e-06
1.06296e-06
1.06292e-06
1.06302e-06
1.06447e-06
1.06465e-06
1.06455e-06
1.06258e-06
1.06007e-06
1.06007e-06
1.06007e-06
1.06007e-06
1.06265e-06
1.06326e-06
1.06305e-06
1.06007e-06
1.06007e-06
1.06007e-06
1.06007e-06
1.06007e-06
1.06007e-06
1.06317e-06
1.06474e-06
1.06478e-06
1.06296e-06
1.06007e-06
1.06007e-06
1.06007e-06
1.06007e-06
1.06007e-06
1.06007e-06
1.06312e-06
1.06451e-06
1.06466e-06
1.06292e-06
1.06007e-06
1.06007e-06
1.06007e-06
1.06007e-06
1.06007e-06
1.06007e-06
1.06309e-06
1.06338e-06
1.06302e-06
1.06007e-06
1.06007e-06
1.06007e-06
1.06007e-06
1.06007e-06
1.06007e-06
1.06315e-06
1.06468e-06
1.06447e-06
1.06265e-06
1.06007e-06
1.06007e-06
1.06007e-06
1.06007e-06
1.06275e-06
1.06324e-06
1.06476e-06
1.06465e-06
1.06326e-06
1.06317e-06
1.06312e-06
1.06309e-06
1.06315e-06
1.06325e-06
1.06454e-06
1.06474e-06
1.06451e-06
1.06338e-06
1.06468e-06
1.06476e-06
1.04958e-06
1.04946e-06
1.04935e-06
1.04785e-06
1.04776e-06
1.04772e-06
1.04782e-06
1.04927e-06
1.04946e-06
1.04935e-06
1.04738e-06
1.04487e-06
1.04487e-06
1.04487e-06
1.04487e-06
1.04745e-06
1.04806e-06
1.04785e-06
1.04487e-06
1.04487e-06
1.04487e-06
1.04487e-06
1.04487e-06
1.04487e-06
1.04797e-06
1.04954e-06
1.04958e-06
1.04776e-06
1.04487e-06
1.04487e-06
1.04487e-06
1.04487e-06
1.04487e-06
1.04487e-06
1.04792e-06
1.04931e-06
1.04946e-06
1.04772e-06
1.04487e-06
1.04487e-06
1.04487e-06
1.04487e-06
1.04487e-06
1.04487e-06
1.04789e-06
1.04818e-06
1.04782e-06
1.04487e-06
1.04487e-06
1.04487e-06
1.04487e-06
1.04487e-06
1.04487e-06
1.04795e-06
1.04948e-06
1.04927e-06
1.04745e-06
1.04487e-06
1.04487e-06
1.04487e-06
1.04487e-06
1.04755e-06
1.04805e-06
1.04956e-06
1.04946e-06
1.04806e-06
1.04797e-06
1.04792e-06
1.04789e-06
1.04795e-06
1.04805e-06
1.04934e-06
1.04954e-06
1.04931e-06
1.04818e-06
1.04948e-06
1.04956e-06
1.03438e-06
1.03426e-06
1.03415e-06
1.03265e-06
1.03256e-06
1.03252e-06
1.03262e-06
1.03407e-06
1.03426e-06
1.03415e-06
1.03218e-06
1.02967e-06
1.02967e-06
1.02967e-06
1.02967e-06
1.03225e-06
1.03286e-06
1.03265e-06
1.02967e-06
1.02967e-06
1.02967e-06
1.02967e-06
1.02967e-06
1.02967e-06
1.03277e-06
1.03434e-06
1.03438e-06
1.03256e-06
1.02967e-06
1.02967e-06
1.02967e-06
1.02967e-06
1.02967e-06
1.02967e-06
1.03272e-06
1.03411e-06
1.03426e-06
1.03252e-06
1.02967e-06
1.02967e-06
1.02967e-06
1.02967e-06
1.02967e-06
1.02967e-06
1.03269e-06
1.03298e-06
1.03262e-06
1.02967e-06
1.02967e-06
1.02967e-06
1.02967e-06
1.02967e-06
1.02967e-06
1.03275e-06
1.03428e-06
1.03407e-06
1.03225e-06
1.02967e-06
1.02967e-06
1.02967e-06
1.02967e-06
1.03235e-06
1.03285e-06
1.03436e-06
1.03426e-06
1.03286e-06
1.03277e-06
1.03272e-06
1.03269e-06
1.03275e-06
1.03285e-06
1.03414e-06
1.03434e-06
1.03411e-06
1.03298e-06
1.03428e-06
1.03436e-06
1.01918e-06
1.01906e-06
1.01895e-06
1.01745e-06
1.01736e-06
1.01732e-06
1.01742e-06
1.01887e-06
1.01906e-06
1.01895e-06
1.01698e-06
1.01447e-06
1.01447e-06
1.01447e-06
1.01447e-06
1.01705e-06
1.01766e-06
1.01745e-06
1.01447e-06
1.01447e-06
1.01447e-06
1.01447e-06
1.01447e-06
1.01447e-06
1.01757e-06
1.01914e-06
1.01918e-06
1.01736e-06
1.01447e-06
1.01447e-06
1.01447e-06
1.01447e-06
1.01447e-06
1.01447e-06
1.01752e-06
1.01891e-06
1.01906e-06
1.01732e-06
1.01447e-06
1.01447e-06
1.01447e-06
1.01447e-06
1.01447e-06
1.01447e-06
1.01749e-06
1.01778e-06
1.01742e-06
1.01447e-06
1.01447e-06
1.01447e-06
1.01447e-06
1.01447e-06
1.01447e-06
1.01755e-06
1.01908e-06
1.01887e-06
1.01705e-06
1.01447e-06
1.01447e-06
1.01447e-06
1.01447e-06
1.01715e-06
1.01765e-06
1.01916e-06
1.01906e-06
1.01766e-06
1.01757e-06
1.01752e-06
1.01749e-06
1.01755e-06
1.01765e-06
1.01894e-06
1.01914e-06
1.01891e-06
1.01778e-06
1.01908e-06
1.01916e-06
1.00398e-06
1.00386e-06
1.00375e-06
1.00225e-06
1.00216e-06
1.00212e-06
1.00222e-06
1.00367e-06
1.00386e-06
1.00375e-06
1.00178e-06
9.99268e-07
9.99268e-07
9.99268e-07
9.99268e-07
1.00185e-06
1.00246e-06
1.00225e-06
9.99268e-07
9.99268e-07
9.99268e-07
9.99268e-07
9.99268e-07
9.99268e-07
1.00237e-06
1.00394e-06
1.00398e-06
1.00216e-06
9.99268e-07
9.99268e-07
9.99268e-07
9.99268e-07
9.99268e-07
9.99268e-07
1.00232e-06
1.00371e-06
1.00386e-06
1.00212e-06
9.99268e-07
9.99268e-07
9.99268e-07
9.99268e-07
9.99268e-07
9.99268e-07
1.00229e-06
1.00258e-06
1.00222e-06
9.99268e-07
9.99268e-07
9.99268e-07
9.99268e-07
9.99268e-07
9.99268e-07
1.00235e-06
1.00388e-06
1.00367e-06
1.00185e-06
9.99268e-07
9.99268e-07
9.99268e-07
9.99268e-07
1.00195e-06
1.00245e-06
1.00396e-06
1.00386e-06
1.00246e-06
1.00237e-06
1.00232e-06
1.00229e-06
1.00235e-06
1.00245e-06
1.00374e-06
1.00394e-06
1.00371e-06
1.00258e-06
1.00388e-06
1.00396e-06
9.88784e-07
9.88664e-07
9.88555e-07
9.87051e-07
9.86961e-07
9.86918e-07
9.87018e-07
9.88475e-07
9.88657e-07
9.88555e-07
9.86581e-07
9.84068e-07
9.84068e-07
9.84068e-07
9.84068e-07
9.8665e-07
9.87264e-07
9.87051e-07
9.84068e-07
9.84068e-07
9.84068e-07
9.84068e-07
9.84068e-07
9.84068e-07
9.87168e-07
9.88742e-07
9.88784e-07
9.86961e-07
9.84068e-07
9.84068e-07
9.84068e-07
9.84068e-07
9.84068e-07
9.84068e-07
9.87122e-07
9.88508e-07
9.88664e-07
9.86918e-07
9.84068e-07
9.84068e-07
9.84068e-07
9.84068e-07
9.84068e-07
9.84068e-07
9.87093e-07
9.87378e-07
9.87018e-07
9.84068e-07
9.84068e-07
9.84068e-07
9.84068e-07
9.84068e-07
9.84068e-07
9.8715e-07
9.88682e-07
9.88475e-07
9.8665e-07
9.84068e-07
9.84068e-07
9.84068e-07
9.84068e-07
9.86755e-07
9.87247e-07
9.88764e-07
9.88657e-07
9.87264e-07
9.87168e-07
9.87122e-07
9.87093e-07
9.8715e-07
9.87247e-07
9.88544e-07
9.88742e-07
9.88509e-07
9.87377e-07
9.88682e-07
9.88763e-07
9.73584e-07
9.73465e-07
9.73356e-07
9.71851e-07
9.71762e-07
9.71719e-07
9.71819e-07
9.73276e-07
9.73457e-07
9.73355e-07
9.71382e-07
9.68869e-07
9.68869e-07
9.68869e-07
9.68869e-07
9.71451e-07
9.72065e-07
9.71851e-07
9.68869e-07
9.68869e-07
9.68869e-07
9.68869e-07
9.68869e-07
9.68869e-07
9.71969e-07
9.73543e-07
9.73585e-07
9.71761e-07
9.68869e-07
9.68869e-07
9.68869e-07
9.68869e-07
9.68869e-07
9.68869e-07
9.71923e-07
9.73309e-07
9.73464e-07
9.71719e-07
9.68869e-07
9.68869e-07
9.68869e-07
9.68869e-07
9.68869e-07
9.68869e-07
9.71893e-07
9.72178e-07
9.71819e-07
9.68869e-07
9.68869e-07
9.68869e-07
9.68869e-07