/*--------------------------------*- C++ -*----------------------------------*\
| =========                 |                                                 |
| \\      /  F ield         | OpenFOAM: The Open Source CFD Toolbox           |
|  \\    /   O peration     | Version:  v2012                                 |
|   \\  /    A nd           | Website:  www.openfoam.com                      |
|    \\/     M anipulation  |                                                 |
\*---------------------------------------------------------------------------*/
FoamFile
{
    version     2.0;
    format      ascii;
    class       volScalarField;
    location    "0.115";
    object      p;
}
// * * * * * * * * * * * * * * * * * * * * * * * * * * * * * * * * * * * * * //

dimensions      [0 2 -2 0 0 0 0];


internalField   nonuniform List<scalar> 
244288
(
2.18744e-06
2.18875e-06
2.18881e-06
2.18835e-06
2.188e-06
2.18844e-06
2.18884e-06
2.18875e-06
2.1889e-06
2.18895e-06
2.18867e-06
2.18849e-06
2.18872e-06
2.18898e-06
2.18888e-06
2.18881e-06
2.18895e-06
2.18874e-06
2.18836e-06
2.1882e-06
2.18841e-06
2.18879e-06
2.18895e-06
2.1888e-06
2.18836e-06
2.18867e-06
2.18836e-06
2.18794e-06
2.18778e-06
2.18799e-06
2.18842e-06
2.18868e-06
2.18827e-06
2.18744e-06
2.188e-06
2.18849e-06
2.1882e-06
2.18778e-06
2.18762e-06
2.18783e-06
2.18826e-06
2.18849e-06
2.18789e-06
2.18843e-06
2.18872e-06
2.18841e-06
2.18799e-06
2.18783e-06
2.18804e-06
2.18847e-06
2.18873e-06
2.18837e-06
2.18884e-06
2.18897e-06
2.18879e-06
2.18842e-06
2.18826e-06
2.18847e-06
2.18883e-06
2.18898e-06
2.18885e-06
2.18888e-06
2.18896e-06
2.18868e-06
2.18849e-06
2.18873e-06
2.18898e-06
2.18885e-06
2.18881e-06
2.18828e-06
2.18789e-06
2.18836e-06
2.18884e-06
2.1537e-06
2.15229e-06
2.15323e-06
2.15138e-06
2.15113e-06
2.151e-06
2.15115e-06
2.15376e-06
2.1537e-06
2.15322e-06
2.1506e-06
2.14772e-06
2.14761e-06
2.14761e-06
2.14772e-06
2.15216e-06
2.15165e-06
2.15138e-06
2.14772e-06
2.14754e-06
2.14755e-06
2.14755e-06
2.14755e-06
2.14772e-06
2.15248e-06
2.15427e-06
2.15369e-06
2.15113e-06
2.1476e-06
2.14754e-06
2.14759e-06
2.14759e-06
2.14755e-06
2.14761e-06
2.15214e-06
2.15304e-06
2.1523e-06
2.151e-06
2.14761e-06
2.14755e-06
2.14759e-06
2.14759e-06
2.14755e-06
2.14762e-06
2.15206e-06
2.15073e-06
2.15114e-06
2.14772e-06
2.14755e-06
2.14755e-06
2.14755e-06
2.14755e-06
2.14773e-06
2.15227e-06
2.15215e-06
2.15375e-06
2.15215e-06
2.14772e-06
2.14761e-06
2.14762e-06
2.14772e-06
2.15288e-06
2.1523e-06
2.15436e-06
2.1537e-06
2.15165e-06
2.15248e-06
2.15214e-06
2.15206e-06
2.15227e-06
2.15231e-06
2.15483e-06
2.15427e-06
2.15304e-06
2.15074e-06
2.15215e-06
2.15436e-06
2.13293e-06
2.1327e-06
2.13271e-06
2.13004e-06
2.13004e-06
2.12996e-06
2.1301e-06
2.1334e-06
2.13332e-06
2.1327e-06
2.12881e-06
2.12572e-06
2.12539e-06
2.12538e-06
2.12569e-06
2.13124e-06
2.13106e-06
2.13004e-06
2.12572e-06
2.12471e-06
2.1247e-06
2.12469e-06
2.12469e-06
2.12572e-06
2.13252e-06
2.13415e-06
2.13287e-06
2.13005e-06
2.12539e-06
2.12469e-06
2.12474e-06
2.12473e-06
2.12469e-06
2.12537e-06
2.1326e-06
2.13333e-06
2.13265e-06
2.12996e-06
2.12538e-06
2.12469e-06
2.12473e-06
2.12473e-06
2.12469e-06
2.12539e-06
2.13246e-06
2.13039e-06
2.13009e-06
2.12568e-06
2.12469e-06
2.12469e-06
2.12469e-06
2.12469e-06
2.1257e-06
2.13268e-06
2.13403e-06
2.1334e-06
2.13123e-06
2.12573e-06
2.12538e-06
2.12538e-06
2.12572e-06
2.13308e-06
2.13185e-06
2.13392e-06
2.13332e-06
2.13106e-06
2.13252e-06
2.13259e-06
2.13247e-06
2.1327e-06
2.13188e-06
2.13446e-06
2.13415e-06
2.13328e-06
2.13043e-06
2.13404e-06
2.13392e-06
2.11075e-06
2.11058e-06
2.11051e-06
2.1076e-06
2.10764e-06
2.10741e-06
2.10784e-06
2.11118e-06
2.11117e-06
2.11052e-06
2.10592e-06
2.10319e-06
2.10305e-06
2.10304e-06
2.10321e-06
2.10863e-06
2.10902e-06
2.1076e-06
2.10318e-06
2.10282e-06
2.10279e-06
2.10279e-06
2.10282e-06
2.10319e-06
2.1104e-06
2.11201e-06
2.11073e-06
2.10765e-06
2.10305e-06
2.10279e-06
2.10278e-06
2.10278e-06
2.10279e-06
2.10305e-06
2.11079e-06
2.11123e-06
2.11056e-06
2.1074e-06
2.10304e-06
2.10279e-06
2.10278e-06
2.10278e-06
2.10279e-06
2.10305e-06
2.1107e-06
2.10848e-06
2.10783e-06
2.10321e-06
2.10282e-06
2.10279e-06
2.10279e-06
2.10282e-06
2.10322e-06
2.11075e-06
2.11192e-06
2.11117e-06
2.10862e-06
2.10319e-06
2.10306e-06
2.10306e-06
2.10319e-06
2.1112e-06
2.10977e-06
2.11186e-06
2.11117e-06
2.10902e-06
2.1104e-06
2.1108e-06
2.11071e-06
2.11075e-06
2.10978e-06
2.11217e-06
2.11201e-06
2.11121e-06
2.1085e-06
2.11193e-06
2.11185e-06
2.08824e-06
2.08809e-06
2.08781e-06
2.08484e-06
2.08486e-06
2.08451e-06
2.0851e-06
2.08846e-06
2.08845e-06
2.0878e-06
2.08291e-06
2.08036e-06
2.08033e-06
2.08032e-06
2.08037e-06
2.08566e-06
2.08637e-06
2.08484e-06
2.08036e-06
2.08028e-06
2.08027e-06
2.08027e-06
2.08027e-06
2.08037e-06
2.08779e-06
2.08945e-06
2.08826e-06
2.08485e-06
2.08033e-06
2.08027e-06
2.08027e-06
2.08027e-06
2.08027e-06
2.08033e-06
2.08841e-06
2.08881e-06
2.08811e-06
2.08451e-06
2.08032e-06
2.08027e-06
2.08027e-06
2.08027e-06
2.08027e-06
2.08033e-06
2.08837e-06
2.08613e-06
2.08511e-06
2.08038e-06
2.08028e-06
2.08027e-06
2.08027e-06
2.08028e-06
2.08038e-06
2.08825e-06
2.08947e-06
2.08847e-06
2.08566e-06
2.08037e-06
2.08033e-06
2.08033e-06
2.08037e-06
2.08878e-06
2.0872e-06
2.08924e-06
2.08845e-06
2.08637e-06
2.08779e-06
2.08842e-06
2.08838e-06
2.08824e-06
2.0872e-06
2.08947e-06
2.08943e-06
2.08882e-06
2.08614e-06
2.08948e-06
2.08924e-06
2.06559e-06
2.06546e-06
2.0651e-06
2.06212e-06
2.06213e-06
2.06173e-06
2.06237e-06
2.06576e-06
2.06574e-06
2.06509e-06
2.06013e-06
2.05762e-06
2.05761e-06
2.05761e-06
2.05762e-06
2.06285e-06
2.06366e-06
2.06212e-06
2.05762e-06
2.0576e-06
2.0576e-06
2.0576e-06
2.0576e-06
2.05762e-06
2.06509e-06
2.06675e-06
2.06563e-06
2.06209e-06
2.05761e-06
2.0576e-06
2.0576e-06
2.0576e-06
2.0576e-06
2.05761e-06
2.06578e-06
2.06619e-06
2.06549e-06
2.06177e-06
2.05761e-06
2.0576e-06
2.0576e-06
2.0576e-06
2.0576e-06
2.05761e-06
2.06576e-06
2.06352e-06
2.06238e-06
2.05762e-06
2.0576e-06
2.0576e-06
2.0576e-06
2.0576e-06
2.05762e-06
2.06558e-06
2.06683e-06
2.06575e-06
2.06285e-06
2.05762e-06
2.05761e-06
2.05761e-06
2.05762e-06
2.06617e-06
2.06453e-06
2.06655e-06
2.06573e-06
2.06366e-06
2.06509e-06
2.06578e-06
2.06576e-06
2.06558e-06
2.06453e-06
2.06676e-06
2.06674e-06
2.06619e-06
2.06352e-06
2.06683e-06
2.06655e-06
2.04289e-06
2.04276e-06
2.04239e-06
2.0394e-06
2.03941e-06
2.03899e-06
2.03965e-06
2.04304e-06
2.04301e-06
2.04238e-06
2.0374e-06
2.03489e-06
2.03489e-06
2.03489e-06
2.03489e-06
2.04011e-06
2.04095e-06
2.0394e-06
2.03489e-06
2.03489e-06
2.03489e-06
2.03489e-06
2.03489e-06
2.03489e-06
2.04238e-06
2.04403e-06
2.04297e-06
2.03937e-06
2.03489e-06
2.03489e-06
2.03489e-06
2.03489e-06
2.03489e-06
2.03489e-06
2.04308e-06
2.04348e-06
2.04279e-06
2.03903e-06
2.03489e-06
2.03489e-06
2.03489e-06
2.03489e-06
2.03489e-06
2.03489e-06
2.04307e-06
2.04083e-06
2.03965e-06
2.03489e-06
2.03489e-06
2.03489e-06
2.03489e-06
2.03489e-06
2.03489e-06
2.04287e-06
2.04413e-06
2.04303e-06
2.04011e-06
2.03489e-06
2.03489e-06
2.03489e-06
2.03489e-06
2.04348e-06
2.04183e-06
2.04384e-06
2.04301e-06
2.04094e-06
2.04238e-06
2.04308e-06
2.04307e-06
2.04287e-06
2.04182e-06
2.04404e-06
2.04402e-06
2.04348e-06
2.04083e-06
2.04414e-06
2.04382e-06
2.02018e-06
2.02005e-06
2.01968e-06
2.01668e-06
2.01669e-06
2.01628e-06
2.01693e-06
2.02033e-06
2.0203e-06
2.01966e-06
2.01466e-06
2.01217e-06
2.01217e-06
2.01217e-06
2.01217e-06
2.01739e-06
2.01823e-06
2.01668e-06
2.01217e-06
2.01217e-06
2.01217e-06
2.01217e-06
2.01217e-06
2.01217e-06
2.01967e-06
2.02132e-06
2.0202e-06
2.01666e-06
2.01217e-06
2.01217e-06
2.01217e-06
2.01217e-06
2.01217e-06
2.01217e-06
2.02036e-06
2.02077e-06
2.02007e-06
2.01624e-06
2.01217e-06
2.01217e-06
2.01217e-06
2.01217e-06
2.01217e-06
2.01217e-06
2.02035e-06
2.01811e-06
2.01695e-06
2.01217e-06
2.01217e-06
2.01217e-06
2.01217e-06
2.01217e-06
2.01218e-06
2.02016e-06
2.02142e-06
2.02032e-06
2.01738e-06
2.01217e-06
2.01217e-06
2.01217e-06
2.01217e-06
2.02077e-06
2.01912e-06
2.02112e-06
2.0203e-06
2.01823e-06
2.01967e-06
2.02037e-06
2.02036e-06
2.02016e-06
2.01911e-06
2.02133e-06
2.02131e-06
2.02078e-06
2.01812e-06
2.02142e-06
2.02111e-06
1.99746e-06
1.99733e-06
1.99696e-06
1.99396e-06
1.99397e-06
1.99355e-06
1.99421e-06
1.99761e-06
1.99758e-06
1.99693e-06
1.99194e-06
1.98945e-06
1.98945e-06
1.98945e-06
1.98945e-06
1.99466e-06
1.99551e-06
1.99395e-06
1.98945e-06
1.98945e-06
1.98945e-06
1.98945e-06
1.98945e-06
1.98945e-06
1.99695e-06
1.9986e-06
1.99742e-06
1.99398e-06
1.98946e-06
1.98945e-06
1.98946e-06
1.98946e-06
1.98945e-06
1.98946e-06
1.99765e-06
1.99806e-06
1.99728e-06
1.99359e-06
1.98945e-06
1.98945e-06
1.98946e-06
1.98946e-06
1.98945e-06
1.98946e-06
1.99764e-06
1.9954e-06
1.99421e-06
1.98946e-06
1.98945e-06
1.98946e-06
1.98946e-06
1.98945e-06
1.98946e-06
1.99744e-06
1.9987e-06
1.9976e-06
1.99467e-06
1.98946e-06
1.98946e-06
1.98946e-06
1.98946e-06
1.99806e-06
1.9964e-06
1.9984e-06
1.99758e-06
1.99551e-06
1.99695e-06
1.99765e-06
1.99764e-06
1.99744e-06
1.99639e-06
1.99861e-06
1.99859e-06
1.99806e-06
1.99541e-06
1.99871e-06
1.99839e-06
1.97474e-06
1.97461e-06
1.97424e-06
1.97124e-06
1.97126e-06
1.97083e-06
1.9715e-06
1.97489e-06
1.97486e-06
1.97422e-06
1.96923e-06
1.96674e-06
1.96674e-06
1.96674e-06
1.96674e-06
1.97195e-06
1.9728e-06
1.97124e-06
1.96674e-06
1.96674e-06
1.96674e-06
1.96674e-06
1.96674e-06
1.96674e-06
1.97423e-06
1.97588e-06
1.97469e-06
1.97124e-06
1.96674e-06
1.96674e-06
1.96674e-06
1.96674e-06
1.96674e-06
1.96674e-06
1.97493e-06
1.97534e-06
1.97454e-06
1.97087e-06
1.96674e-06
1.96674e-06
1.96674e-06
1.96674e-06
1.96674e-06
1.96674e-06
1.97493e-06
1.97269e-06
1.97149e-06
1.96674e-06
1.96674e-06
1.96674e-06
1.96674e-06
1.96674e-06
1.96674e-06
1.97472e-06
1.97598e-06
1.97488e-06
1.97195e-06
1.96674e-06
1.96674e-06
1.96674e-06
1.96674e-06
1.97534e-06
1.97369e-06
1.97569e-06
1.97486e-06
1.97279e-06
1.97423e-06
1.97493e-06
1.97493e-06
1.97472e-06
1.97367e-06
1.97589e-06
1.97587e-06
1.97535e-06
1.97269e-06
1.97599e-06
1.97567e-06
1.95203e-06
1.9519e-06
1.95152e-06
1.94853e-06
1.94854e-06
1.94811e-06
1.94878e-06
1.95217e-06
1.95214e-06
1.95151e-06
1.94651e-06
1.94402e-06
1.94402e-06
1.94402e-06
1.94402e-06
1.94923e-06
1.95008e-06
1.94852e-06
1.94402e-06
1.94402e-06
1.94402e-06
1.94402e-06
1.94402e-06
1.94402e-06
1.95151e-06
1.95317e-06
1.95198e-06
1.94853e-06
1.94402e-06
1.94402e-06
1.94402e-06
1.94402e-06
1.94402e-06
1.94402e-06
1.95221e-06
1.95262e-06
1.95186e-06
1.94815e-06
1.94402e-06
1.94402e-06
1.94402e-06
1.94402e-06
1.94402e-06
1.94402e-06
1.95221e-06
1.94997e-06
1.94878e-06
1.94402e-06
1.94402e-06
1.94402e-06
1.94402e-06
1.94402e-06
1.94402e-06
1.95201e-06
1.95327e-06
1.95216e-06
1.94924e-06
1.94402e-06
1.94402e-06
1.94402e-06
1.94402e-06
1.95262e-06
1.95097e-06
1.95297e-06
1.95214e-06
1.95007e-06
1.95151e-06
1.95222e-06
1.95221e-06
1.952e-06
1.95096e-06
1.95318e-06
1.95316e-06
1.95263e-06
1.94997e-06
1.95327e-06
1.95295e-06
1.9293e-06
1.92918e-06
1.9288e-06
1.92581e-06
1.92582e-06
1.9254e-06
1.92606e-06
1.92945e-06
1.92943e-06
1.92879e-06
1.92379e-06
1.9213e-06
1.9213e-06
1.9213e-06
1.9213e-06
1.92651e-06
1.92736e-06
1.92581e-06
1.9213e-06
1.9213e-06
1.9213e-06
1.9213e-06
1.9213e-06
1.9213e-06
1.92879e-06
1.93045e-06
1.92931e-06
1.92582e-06
1.9213e-06
1.9213e-06
1.9213e-06
1.9213e-06
1.9213e-06
1.9213e-06
1.9295e-06
1.92991e-06
1.92918e-06
1.9254e-06
1.9213e-06
1.9213e-06
1.9213e-06
1.9213e-06
1.9213e-06
1.9213e-06
1.92949e-06
1.92725e-06
1.92606e-06
1.9213e-06
1.9213e-06
1.9213e-06
1.9213e-06
1.9213e-06
1.9213e-06
1.92929e-06
1.93055e-06
1.92945e-06
1.92652e-06
1.9213e-06
1.9213e-06
1.9213e-06
1.9213e-06
1.9299e-06
1.92825e-06
1.93025e-06
1.92943e-06
1.92735e-06
1.92879e-06
1.9295e-06
1.92949e-06
1.92928e-06
1.92824e-06
1.93046e-06
1.93044e-06
1.92991e-06
1.92725e-06
1.93055e-06
1.93024e-06
1.90659e-06
1.90646e-06
1.90609e-06
1.90309e-06
1.9031e-06
1.90268e-06
1.90334e-06
1.90674e-06
1.90671e-06
1.90607e-06
1.90108e-06
1.89858e-06
1.89858e-06
1.89858e-06
1.89858e-06
1.90379e-06
1.90464e-06
1.90309e-06
1.89858e-06
1.89858e-06
1.89858e-06
1.89858e-06
1.89858e-06
1.89858e-06
1.90607e-06
1.90773e-06
1.90661e-06
1.90307e-06
1.89858e-06
1.89858e-06
1.89858e-06
1.89858e-06
1.89858e-06
1.89858e-06
1.90678e-06
1.90719e-06
1.90646e-06
1.9027e-06
1.89858e-06
1.89858e-06
1.89858e-06
1.89858e-06
1.89858e-06
1.89858e-06
1.90677e-06
1.90453e-06
1.90334e-06
1.89858e-06
1.89858e-06
1.89858e-06
1.89858e-06
1.89858e-06
1.89858e-06
1.90657e-06
1.90783e-06
1.90672e-06
1.90379e-06
1.89858e-06
1.89858e-06
1.89858e-06
1.89858e-06
1.90719e-06
1.90553e-06
1.90753e-06
1.9067e-06
1.90464e-06
1.90607e-06
1.90678e-06
1.90677e-06
1.90656e-06
1.90552e-06
1.90774e-06
1.90772e-06
1.90719e-06
1.90453e-06
1.90783e-06
1.90752e-06
1.88387e-06
1.88374e-06
1.88337e-06
1.88038e-06
1.88038e-06
1.87996e-06
1.88062e-06
1.88402e-06
1.88399e-06
1.88335e-06
1.87836e-06
1.87587e-06
1.87586e-06
1.87586e-06
1.87586e-06
1.88107e-06
1.88192e-06
1.88037e-06
1.87586e-06
1.87587e-06
1.87586e-06
1.87586e-06
1.87586e-06
1.87586e-06
1.88336e-06
1.88501e-06
1.88396e-06
1.88033e-06
1.87586e-06
1.87587e-06
1.87586e-06
1.87586e-06
1.87586e-06
1.87586e-06
1.88406e-06
1.88446e-06
1.88374e-06
1.88001e-06
1.87586e-06
1.87586e-06
1.87586e-06
1.87586e-06
1.87586e-06
1.87586e-06
1.88405e-06
1.88181e-06
1.88063e-06
1.87586e-06
1.87586e-06
1.87586e-06
1.87586e-06
1.87586e-06
1.87586e-06
1.88385e-06
1.88511e-06
1.884e-06
1.88107e-06
1.87586e-06
1.87586e-06
1.87586e-06
1.87586e-06
1.88446e-06
1.88281e-06
1.88481e-06
1.88398e-06
1.88192e-06
1.88335e-06
1.88406e-06
1.88406e-06
1.88385e-06
1.8828e-06
1.88502e-06
1.885e-06
1.88447e-06
1.88181e-06
1.88512e-06
1.8848e-06
1.86115e-06
1.86102e-06
1.86065e-06
1.85765e-06
1.85766e-06
1.85724e-06
1.8579e-06
1.8613e-06
1.86127e-06
1.86063e-06
1.85564e-06
1.85315e-06
1.85315e-06
1.85315e-06
1.85315e-06
1.85836e-06
1.8592e-06
1.85765e-06
1.85314e-06
1.85314e-06
1.85315e-06
1.85315e-06
1.85315e-06
1.85315e-06
1.86064e-06
1.86229e-06
1.86122e-06
1.85763e-06
1.85315e-06
1.85315e-06
1.85315e-06
1.85315e-06
1.85314e-06
1.85314e-06
1.86134e-06
1.86175e-06
1.86109e-06
1.85728e-06
1.85315e-06
1.85315e-06
1.85314e-06
1.85314e-06
1.85314e-06
1.85314e-06
1.86133e-06
1.85909e-06
1.8579e-06
1.85315e-06
1.85315e-06
1.85314e-06
1.85314e-06
1.85314e-06
1.85314e-06
1.86113e-06
1.86239e-06
1.86128e-06
1.85834e-06
1.85315e-06
1.85314e-06
1.85314e-06
1.85314e-06
1.86175e-06
1.8601e-06
1.86209e-06
1.86126e-06
1.8592e-06
1.86064e-06
1.86134e-06
1.86134e-06
1.86113e-06
1.86008e-06
1.8623e-06
1.86228e-06
1.86175e-06
1.8591e-06
1.8624e-06
1.86208e-06
1.83843e-06
1.83831e-06
1.83793e-06
1.83494e-06
1.83494e-06
1.83452e-06
1.83519e-06
1.83858e-06
1.83855e-06
1.83791e-06
1.83292e-06
1.83043e-06
1.83043e-06
1.83043e-06
1.83043e-06
1.83564e-06
1.83649e-06
1.83493e-06
1.83043e-06
1.83043e-06
1.83043e-06
1.83043e-06
1.83043e-06
1.83043e-06
1.83792e-06
1.83957e-06
1.83843e-06
1.83494e-06
1.83043e-06
1.83043e-06
1.83043e-06
1.83043e-06
1.83043e-06
1.83043e-06
1.83862e-06
1.83903e-06
1.83829e-06
1.83453e-06
1.83043e-06
1.83043e-06
1.83043e-06
1.83043e-06
1.83043e-06
1.83043e-06
1.83861e-06
1.83638e-06
1.83519e-06
1.83043e-06
1.83043e-06
1.83043e-06
1.83043e-06
1.83043e-06
1.83043e-06
1.83841e-06
1.83967e-06
1.83857e-06
1.83564e-06
1.83043e-06
1.83043e-06
1.83043e-06
1.83043e-06
1.83902e-06
1.83738e-06
1.83938e-06
1.83855e-06
1.83648e-06
1.83792e-06
1.83862e-06
1.83862e-06
1.83841e-06
1.83736e-06
1.83958e-06
1.83956e-06
1.83903e-06
1.83638e-06
1.83968e-06
1.83936e-06
1.81571e-06
1.81559e-06
1.81521e-06
1.81222e-06
1.81223e-06
1.8118e-06
1.81247e-06
1.81586e-06
1.81583e-06
1.81519e-06
1.8102e-06
1.80771e-06
1.80771e-06
1.80771e-06
1.80771e-06
1.81292e-06
1.81377e-06
1.81221e-06
1.80771e-06
1.80771e-06
1.80771e-06
1.80771e-06
1.80771e-06
1.80771e-06
1.8152e-06
1.81685e-06
1.81573e-06
1.81221e-06
1.80771e-06
1.80771e-06
1.80771e-06
1.80771e-06
1.80771e-06
1.80771e-06
1.8159e-06
1.81631e-06
1.8156e-06
1.81181e-06
1.80771e-06
1.80771e-06
1.80771e-06
1.80771e-06
1.80771e-06
1.80771e-06
1.8159e-06
1.81366e-06
1.81247e-06
1.80771e-06
1.80771e-06
1.80771e-06
1.80771e-06
1.80771e-06
1.80771e-06
1.81569e-06
1.81695e-06
1.81586e-06
1.81292e-06
1.80771e-06
1.80771e-06
1.80771e-06
1.80771e-06
1.81631e-06
1.81466e-06
1.81666e-06
1.81583e-06
1.81376e-06
1.8152e-06
1.8159e-06
1.81589e-06
1.81569e-06
1.81465e-06
1.81686e-06
1.81684e-06
1.81631e-06
1.81364e-06
1.81696e-06
1.81665e-06
1.79299e-06
1.79287e-06
1.79249e-06
1.7895e-06
1.78951e-06
1.78909e-06
1.78975e-06
1.79314e-06
1.79312e-06
1.79248e-06
1.78748e-06
1.78499e-06
1.78499e-06
1.78499e-06
1.78499e-06
1.7902e-06
1.79105e-06
1.7895e-06
1.78499e-06
1.78499e-06
1.78499e-06
1.78499e-06
1.78499e-06
1.78499e-06
1.79248e-06
1.79414e-06
1.793e-06
1.78951e-06
1.78499e-06
1.78499e-06
1.78499e-06
1.78499e-06
1.78499e-06
1.78499e-06
1.79319e-06
1.79359e-06
1.79288e-06
1.78909e-06
1.78499e-06
1.78499e-06
1.78499e-06
1.78499e-06
1.78499e-06
1.78499e-06
1.79318e-06
1.79094e-06
1.78975e-06
1.78499e-06
1.78499e-06
1.78499e-06
1.78499e-06
1.78499e-06
1.78499e-06
1.79298e-06
1.79424e-06
1.79314e-06
1.7902e-06
1.78499e-06
1.78499e-06
1.78499e-06
1.78499e-06
1.79359e-06
1.79194e-06
1.79394e-06
1.79312e-06
1.79105e-06
1.79248e-06
1.79319e-06
1.79317e-06
1.79296e-06
1.79193e-06
1.79414e-06
1.79414e-06
1.79364e-06
1.79089e-06
1.79422e-06
1.79392e-06
1.77028e-06
1.77015e-06
1.76977e-06
1.76678e-06
1.76679e-06
1.76637e-06
1.76703e-06
1.77042e-06
1.7704e-06
1.76976e-06
1.76476e-06
1.76227e-06
1.76227e-06
1.76227e-06
1.76227e-06
1.76748e-06
1.76833e-06
1.76677e-06
1.76227e-06
1.76227e-06
1.76227e-06
1.76227e-06
1.76227e-06
1.76227e-06
1.76977e-06
1.77142e-06
1.77027e-06
1.7668e-06
1.76227e-06
1.76227e-06
1.76227e-06
1.76227e-06
1.76227e-06
1.76227e-06
1.77047e-06
1.77087e-06
1.77013e-06
1.76638e-06
1.76227e-06
1.76227e-06
1.76227e-06
1.76227e-06
1.76227e-06
1.76227e-06
1.77046e-06
1.76822e-06
1.76704e-06
1.76227e-06
1.76227e-06
1.76227e-06
1.76227e-06
1.76227e-06
1.76227e-06
1.77026e-06
1.77152e-06
1.77042e-06
1.76749e-06
1.76227e-06
1.76227e-06
1.76227e-06
1.76227e-06
1.77087e-06
1.76922e-06
1.77122e-06
1.7704e-06
1.76833e-06
1.76977e-06
1.77048e-06
1.77047e-06
1.77025e-06
1.76921e-06
1.77142e-06
1.77142e-06
1.77093e-06
1.76821e-06
1.77152e-06
1.77119e-06
1.74756e-06
1.74743e-06
1.74706e-06
1.74406e-06
1.74407e-06
1.74365e-06
1.74431e-06
1.74771e-06
1.74768e-06
1.74704e-06
1.74204e-06
1.73955e-06
1.73955e-06
1.73955e-06
1.73955e-06
1.74476e-06
1.74561e-06
1.74406e-06
1.73955e-06
1.73955e-06
1.73955e-06
1.73955e-06
1.73955e-06
1.73955e-06
1.74705e-06
1.7487e-06
1.74756e-06
1.74407e-06
1.73955e-06
1.73955e-06
1.73955e-06
1.73955e-06
1.73955e-06
1.73955e-06
1.74775e-06
1.74816e-06
1.74742e-06
1.74365e-06
1.73955e-06
1.73955e-06
1.73955e-06
1.73955e-06
1.73955e-06
1.73955e-06
1.74774e-06
1.7455e-06
1.74432e-06
1.73955e-06
1.73955e-06
1.73955e-06
1.73955e-06
1.73955e-06
1.73955e-06
1.74754e-06
1.7488e-06
1.74769e-06
1.74476e-06
1.73955e-06
1.73956e-06
1.73955e-06
1.73955e-06
1.74816e-06
1.7465e-06
1.7485e-06
1.74767e-06
1.7456e-06
1.74704e-06
1.74774e-06
1.74777e-06
1.74754e-06
1.74649e-06
1.74871e-06
1.74869e-06
1.74812e-06
1.74553e-06
1.74882e-06
1.74849e-06
1.72483e-06
1.72471e-06
1.72434e-06
1.72134e-06
1.72136e-06
1.72093e-06
1.7216e-06
1.72499e-06
1.72496e-06
1.72432e-06
1.71932e-06
1.71684e-06
1.71684e-06
1.71684e-06
1.71684e-06
1.72204e-06
1.7229e-06
1.72134e-06
1.71683e-06
1.71684e-06
1.71684e-06
1.71684e-06
1.71684e-06
1.71684e-06
1.72433e-06
1.72598e-06
1.72484e-06
1.72135e-06
1.71683e-06
1.71684e-06
1.71684e-06
1.71684e-06
1.71684e-06
1.71684e-06
1.72503e-06
1.72544e-06
1.72471e-06
1.72093e-06
1.71683e-06
1.71684e-06
1.71684e-06
1.71684e-06
1.71684e-06
1.71684e-06
1.72502e-06
1.72278e-06
1.7216e-06
1.71683e-06
1.71683e-06
1.71684e-06
1.71684e-06
1.71684e-06
1.71684e-06
1.72482e-06
1.72608e-06
1.72497e-06
1.72204e-06
1.71683e-06
1.71684e-06
1.71684e-06
1.71684e-06
1.72544e-06
1.72379e-06
1.72579e-06
1.72496e-06
1.72289e-06
1.72432e-06
1.72501e-06
1.72506e-06
1.72483e-06
1.72378e-06
1.72599e-06
1.72595e-06
1.72538e-06
1.72284e-06
1.7261e-06
1.72577e-06
1.70212e-06
1.70199e-06
1.70162e-06
1.69862e-06
1.69864e-06
1.69821e-06
1.69888e-06
1.70227e-06
1.70224e-06
1.7016e-06
1.69661e-06
1.69412e-06
1.69412e-06
1.69412e-06
1.69412e-06
1.69933e-06
1.70018e-06
1.69862e-06
1.69412e-06
1.69412e-06
1.69412e-06
1.69412e-06
1.69412e-06
1.69412e-06
1.70161e-06
1.70326e-06
1.70212e-06
1.69863e-06
1.69412e-06
1.69412e-06
1.69412e-06
1.69412e-06
1.69412e-06
1.69412e-06
1.70231e-06
1.70272e-06
1.702e-06
1.69821e-06
1.69412e-06
1.69412e-06
1.69412e-06
1.69412e-06
1.69412e-06
1.69412e-06
1.7023e-06
1.70006e-06
1.69888e-06
1.69412e-06
1.69412e-06
1.69412e-06
1.69412e-06
1.69412e-06
1.69412e-06
1.7021e-06
1.70336e-06
1.70227e-06
1.69933e-06
1.69412e-06
1.69412e-06
1.69412e-06
1.69412e-06
1.70272e-06
1.70106e-06
1.70306e-06
1.70224e-06
1.70017e-06
1.70161e-06
1.70232e-06
1.7023e-06
1.70208e-06
1.70105e-06
1.70327e-06
1.70327e-06
1.70276e-06
1.70003e-06
1.70335e-06
1.70303e-06
1.6794e-06
1.67927e-06
1.6789e-06
1.6759e-06
1.67592e-06
1.6755e-06
1.67616e-06
1.67955e-06
1.67952e-06
1.67888e-06
1.67389e-06
1.6714e-06
1.6714e-06
1.6714e-06
1.6714e-06
1.67661e-06
1.67746e-06
1.6759e-06
1.6714e-06
1.6714e-06
1.6714e-06
1.6714e-06
1.6714e-06
1.6714e-06
1.67889e-06
1.68054e-06
1.67941e-06
1.67591e-06
1.6714e-06
1.6714e-06
1.6714e-06
1.6714e-06
1.6714e-06
1.6714e-06
1.67959e-06
1.68e-06
1.67928e-06
1.6755e-06
1.6714e-06
1.6714e-06
1.6714e-06
1.6714e-06
1.6714e-06
1.6714e-06
1.67959e-06
1.67735e-06
1.67616e-06
1.6714e-06
1.6714e-06
1.6714e-06
1.6714e-06
1.6714e-06
1.6714e-06
1.67938e-06
1.68065e-06
1.67955e-06
1.67661e-06
1.6714e-06
1.6714e-06
1.6714e-06
1.6714e-06
1.68e-06
1.67834e-06
1.68035e-06
1.67953e-06
1.67746e-06
1.6789e-06
1.6796e-06
1.6796e-06
1.67937e-06
1.67833e-06
1.68055e-06
1.68055e-06
1.68006e-06
1.67733e-06
1.68064e-06
1.68031e-06
1.65668e-06
1.65655e-06
1.65618e-06
1.65319e-06
1.6532e-06
1.65278e-06
1.65344e-06
1.65682e-06
1.6568e-06
1.65616e-06
1.65117e-06
1.64868e-06
1.64868e-06
1.64868e-06
1.64868e-06
1.65389e-06
1.65474e-06
1.65318e-06
1.64868e-06
1.64868e-06
1.64868e-06
1.64868e-06
1.64868e-06
1.64868e-06
1.65617e-06
1.65783e-06
1.65668e-06
1.6532e-06
1.64868e-06
1.64868e-06
1.64868e-06
1.64868e-06
1.64868e-06
1.64868e-06
1.65688e-06
1.65728e-06
1.65656e-06
1.65277e-06
1.64868e-06
1.64868e-06
1.64868e-06
1.64868e-06
1.64868e-06
1.64868e-06
1.65687e-06
1.65463e-06
1.65344e-06
1.64868e-06
1.64868e-06
1.64868e-06
1.64868e-06
1.64868e-06
1.64868e-06
1.65667e-06
1.65793e-06
1.65683e-06
1.65389e-06
1.64868e-06
1.64868e-06
1.64868e-06
1.64868e-06
1.65728e-06
1.65563e-06
1.65763e-06
1.6568e-06
1.65473e-06
1.65616e-06
1.65687e-06
1.65689e-06
1.65667e-06
1.65562e-06
1.65783e-06
1.65783e-06
1.65726e-06
1.65465e-06
1.65794e-06
1.6576e-06
1.63397e-06
1.63384e-06
1.63346e-06
1.63047e-06
1.63047e-06
1.63006e-06
1.63072e-06
1.63411e-06
1.63409e-06
1.63344e-06
1.62845e-06
1.62596e-06
1.62596e-06
1.62596e-06
1.62596e-06
1.63117e-06
1.63202e-06
1.63047e-06
1.62596e-06
1.62596e-06
1.62596e-06
1.62596e-06
1.62596e-06
1.62596e-06
1.63345e-06
1.63511e-06
1.63398e-06
1.63047e-06
1.62596e-06
1.62596e-06
1.62596e-06
1.62596e-06
1.62596e-06
1.62596e-06
1.63416e-06
1.63456e-06
1.63385e-06
1.63006e-06
1.62596e-06
1.62596e-06
1.62596e-06
1.62596e-06
1.62596e-06
1.62596e-06
1.63415e-06
1.63191e-06
1.63072e-06
1.62596e-06
1.62596e-06
1.62596e-06
1.62596e-06
1.62596e-06
1.62596e-06
1.63395e-06
1.63521e-06
1.6341e-06
1.63117e-06
1.62596e-06
1.62596e-06
1.62596e-06
1.62596e-06
1.63457e-06
1.63291e-06
1.63491e-06
1.63408e-06
1.63201e-06
1.63344e-06
1.63414e-06
1.63417e-06
1.63396e-06
1.6329e-06
1.63512e-06
1.63509e-06
1.6345e-06
1.63196e-06
1.63523e-06
1.63489e-06
1.61126e-06
1.61113e-06
1.61075e-06
1.60775e-06
1.60775e-06
1.60734e-06
1.608e-06
1.61139e-06
1.61137e-06
1.61073e-06
1.60573e-06
1.60324e-06
1.60324e-06
1.60324e-06
1.60324e-06
1.60845e-06
1.6093e-06
1.60775e-06
1.60324e-06
1.60324e-06
1.60324e-06
1.60324e-06
1.60324e-06
1.60324e-06
1.61074e-06
1.61239e-06
1.61125e-06
1.60776e-06
1.60324e-06
1.60324e-06
1.60324e-06
1.60324e-06
1.60324e-06
1.60324e-06
1.61144e-06
1.61185e-06
1.61112e-06
1.60734e-06
1.60324e-06
1.60324e-06
1.60324e-06
1.60324e-06
1.60324e-06
1.60324e-06
1.61143e-06
1.60919e-06
1.608e-06
1.60324e-06
1.60324e-06
1.60324e-06
1.60324e-06
1.60324e-06
1.60324e-06
1.61123e-06
1.61249e-06
1.61139e-06
1.60845e-06
1.60324e-06
1.60324e-06
1.60324e-06
1.60324e-06
1.61185e-06
1.61019e-06
1.61219e-06
1.61137e-06
1.6093e-06
1.61073e-06
1.61143e-06
1.61145e-06
1.61123e-06
1.61018e-06
1.6124e-06
1.61237e-06
1.61182e-06
1.60922e-06
1.61251e-06
1.61218e-06
1.58853e-06
1.58841e-06
1.58803e-06
1.58503e-06
1.58504e-06
1.58462e-06
1.58529e-06
1.58868e-06
1.58865e-06
1.58801e-06
1.58302e-06
1.58053e-06
1.58053e-06
1.58053e-06
1.58053e-06
1.58573e-06
1.58658e-06
1.58503e-06
1.58052e-06
1.58053e-06
1.58053e-06
1.58053e-06
1.58053e-06
1.58053e-06
1.58802e-06
1.58967e-06
1.58853e-06
1.58505e-06
1.58053e-06
1.58053e-06
1.58053e-06
1.58053e-06
1.58053e-06
1.58053e-06
1.58872e-06
1.58913e-06
1.58841e-06
1.58463e-06
1.58053e-06
1.58053e-06
1.58053e-06
1.58053e-06
1.58053e-06
1.58053e-06
1.58871e-06
1.58648e-06
1.58528e-06
1.58053e-06
1.58053e-06
1.58053e-06
1.58053e-06
1.58053e-06
1.58052e-06
1.58851e-06
1.58977e-06
1.58867e-06
1.58574e-06
1.58053e-06
1.58053e-06
1.58053e-06
1.58053e-06
1.58913e-06
1.58747e-06
1.58947e-06
1.58865e-06
1.58658e-06
1.58802e-06
1.58872e-06
1.58872e-06
1.58851e-06
1.58746e-06
1.58968e-06
1.58966e-06
1.58913e-06
1.58648e-06
1.58977e-06
1.58946e-06
1.56581e-06
1.56568e-06
1.56531e-06
1.56232e-06
1.56233e-06
1.5619e-06
1.56257e-06
1.56596e-06
1.56593e-06
1.56529e-06
1.5603e-06
1.55781e-06
1.55781e-06
1.55781e-06
1.55781e-06
1.56302e-06
1.56387e-06
1.56231e-06
1.55781e-06
1.55781e-06
1.55781e-06
1.55781e-06
1.55781e-06
1.55781e-06
1.5653e-06
1.56695e-06
1.56579e-06
1.56233e-06
1.55781e-06
1.55781e-06
1.55781e-06
1.55781e-06
1.55781e-06
1.55781e-06
1.566e-06
1.56641e-06
1.56565e-06
1.56194e-06
1.55781e-06
1.55781e-06
1.55781e-06
1.55781e-06
1.55781e-06
1.55781e-06
1.566e-06
1.56376e-06
1.56257e-06
1.55781e-06
1.55781e-06
1.55781e-06
1.55781e-06
1.55781e-06
1.55781e-06
1.56579e-06
1.56706e-06
1.56595e-06
1.56302e-06
1.55781e-06
1.55781e-06
1.55781e-06
1.55781e-06
1.56641e-06
1.56476e-06
1.56676e-06
1.56593e-06
1.56386e-06
1.5653e-06
1.56601e-06
1.566e-06
1.56579e-06
1.56474e-06
1.56696e-06
1.56694e-06
1.56642e-06
1.56376e-06
1.56706e-06
1.56674e-06
1.54309e-06
1.54297e-06
1.54259e-06
1.5396e-06
1.53961e-06
1.53919e-06
1.53985e-06
1.54324e-06
1.54321e-06
1.54257e-06
1.53758e-06
1.53509e-06
1.53509e-06
1.53509e-06
1.53509e-06
1.5403e-06
1.54115e-06
1.5396e-06
1.53509e-06
1.53509e-06
1.53509e-06
1.53509e-06
1.53509e-06
1.53509e-06
1.54258e-06
1.54423e-06
1.54303e-06
1.5396e-06
1.53509e-06
1.53509e-06
1.53509e-06
1.53509e-06
1.53509e-06
1.53509e-06
1.54328e-06
1.54369e-06
1.54291e-06
1.53923e-06
1.53509e-06
1.53509e-06
1.53509e-06
1.53509e-06
1.53509e-06
1.53509e-06
1.54328e-06
1.54104e-06
1.53984e-06
1.53509e-06
1.53509e-06
1.53509e-06
1.53509e-06
1.53509e-06
1.53509e-06
1.54308e-06
1.54434e-06
1.54323e-06
1.5403e-06
1.53509e-06
1.53509e-06
1.53509e-06
1.53509e-06
1.54369e-06
1.54204e-06
1.54404e-06
1.54321e-06
1.54114e-06
1.54258e-06
1.54329e-06
1.54328e-06
1.54308e-06
1.54203e-06
1.54425e-06
1.54422e-06
1.5437e-06
1.54104e-06
1.54434e-06
1.54402e-06
1.52038e-06
1.52025e-06
1.51987e-06
1.51688e-06
1.51689e-06
1.51647e-06
1.51713e-06
1.52052e-06
1.5205e-06
1.51985e-06
1.51486e-06
1.51237e-06
1.51237e-06
1.51237e-06
1.51237e-06
1.51758e-06
1.51843e-06
1.51687e-06
1.51237e-06
1.51237e-06
1.51237e-06
1.51237e-06
1.51237e-06
1.51237e-06
1.51986e-06
1.52152e-06
1.52035e-06
1.51687e-06
1.51237e-06
1.51237e-06
1.51237e-06
1.51237e-06
1.51237e-06
1.51237e-06
1.52057e-06
1.52098e-06
1.52023e-06
1.5165e-06
1.51237e-06
1.51237e-06
1.51237e-06
1.51237e-06
1.51237e-06
1.51237e-06
1.52056e-06
1.51832e-06
1.51713e-06
1.51237e-06
1.51237e-06
1.51237e-06
1.51237e-06
1.51237e-06
1.51237e-06
1.52036e-06
1.52162e-06
1.52051e-06
1.51759e-06
1.51237e-06
1.51237e-06
1.51237e-06
1.51237e-06
1.52097e-06
1.51932e-06
1.52132e-06
1.5205e-06
1.51843e-06
1.51986e-06
1.52057e-06
1.52056e-06
1.52035e-06
1.51931e-06
1.52153e-06
1.52151e-06
1.52098e-06
1.51832e-06
1.52162e-06
1.52131e-06
1.49766e-06
1.49753e-06
1.49716e-06
1.49416e-06
1.49417e-06
1.49375e-06
1.49441e-06
1.49781e-06
1.49778e-06
1.49714e-06
1.49214e-06
1.48965e-06
1.48965e-06
1.48965e-06
1.48965e-06
1.49486e-06
1.49571e-06
1.49416e-06
1.48965e-06
1.48965e-06
1.48965e-06
1.48965e-06
1.48965e-06
1.48965e-06
1.49714e-06
1.4988e-06
1.49766e-06
1.49417e-06
1.48965e-06
1.48965e-06
1.48965e-06
1.48965e-06
1.48965e-06
1.48965e-06
1.49785e-06
1.49826e-06
1.49753e-06
1.49376e-06
1.48965e-06
1.48965e-06
1.48965e-06
1.48965e-06
1.48965e-06
1.48965e-06
1.49784e-06
1.4956e-06
1.49442e-06
1.48965e-06
1.48965e-06
1.48965e-06
1.48965e-06
1.48965e-06
1.48965e-06
1.49764e-06
1.4989e-06
1.4978e-06
1.49487e-06
1.48965e-06
1.48965e-06
1.48965e-06
1.48965e-06
1.49825e-06
1.4966e-06
1.4986e-06
1.49778e-06
1.49571e-06
1.49714e-06
1.49785e-06
1.49784e-06
1.49763e-06
1.49659e-06
1.49881e-06
1.49879e-06
1.49827e-06
1.4956e-06
1.49891e-06
1.49859e-06
1.47494e-06
1.47481e-06
1.47444e-06
1.47144e-06
1.47145e-06
1.47103e-06
1.47169e-06
1.47509e-06
1.47506e-06
1.47442e-06
1.46943e-06
1.46693e-06
1.46693e-06
1.46693e-06
1.46693e-06
1.47214e-06
1.47299e-06
1.47144e-06
1.46693e-06
1.46693e-06
1.46693e-06
1.46693e-06
1.46693e-06
1.46693e-06
1.47443e-06
1.47608e-06
1.47494e-06
1.47145e-06
1.46693e-06
1.46693e-06
1.46693e-06
1.46693e-06
1.46693e-06
1.46693e-06
1.47513e-06
1.47554e-06
1.47481e-06
1.47104e-06
1.46693e-06
1.46693e-06
1.46693e-06
1.46693e-06
1.46693e-06
1.46693e-06
1.47512e-06
1.47288e-06
1.4717e-06
1.46693e-06
1.46693e-06
1.46693e-06
1.46693e-06
1.46693e-06
1.46693e-06
1.47492e-06
1.47618e-06
1.47508e-06
1.47215e-06
1.46693e-06
1.46693e-06
1.46693e-06
1.46694e-06
1.47554e-06
1.47389e-06
1.47589e-06
1.47506e-06
1.47299e-06