/*--------------------------------*- C++ -*----------------------------------*\
| =========                 |                                                 |
| \\      /  F ield         | OpenFOAM: The Open Source CFD Toolbox           |
|  \\    /   O peration     | Version:  v2012                                 |
|   \\  /    A nd           | Website:  www.openfoam.com                      |
|    \\/     M anipulation  |                                                 |
\*---------------------------------------------------------------------------*/
FoamFile
{
    version     2.0;
    format      ascii;
    class       volScalarField;
    location    "0.055";
    object      p;
}
// * * * * * * * * * * * * * * * * * * * * * * * * * * * * * * * * * * * * * //

dimensions      [0 2 -2 0 0 0 0];


internalField   nonuniform List<scalar> 
244288
(
2.52818e-06
2.53075e-06
2.53057e-06
2.52984e-06
2.52929e-06
2.52996e-06
2.53066e-06
2.53075e-06
2.531e-06
2.531e-06
2.5306e-06
2.53034e-06
2.53067e-06
2.53104e-06
2.53098e-06
2.53058e-06
2.531e-06
2.53084e-06
2.53044e-06
2.53026e-06
2.53049e-06
2.53089e-06
2.53099e-06
2.53051e-06
2.52984e-06
2.5306e-06
2.53044e-06
2.53006e-06
2.5299e-06
2.5301e-06
2.53049e-06
2.53058e-06
2.52967e-06
2.52817e-06
2.52929e-06
2.53034e-06
2.53026e-06
2.52989e-06
2.52974e-06
2.52994e-06
2.53031e-06
2.5303e-06
2.52908e-06
2.52995e-06
2.53066e-06
2.53049e-06
2.5301e-06
2.52994e-06
2.53015e-06
2.53055e-06
2.53065e-06
2.5298e-06
2.53065e-06
2.53104e-06
2.53089e-06
2.53049e-06
2.53031e-06
2.53054e-06
2.53094e-06
2.53103e-06
2.53062e-06
2.53097e-06
2.53099e-06
2.53058e-06
2.53029e-06
2.53065e-06
2.53103e-06
2.53095e-06
2.53052e-06
2.52967e-06
2.52908e-06
2.52979e-06
2.5306e-06
2.49494e-06
2.49331e-06
2.49537e-06
2.49365e-06
2.49301e-06
2.49301e-06
2.49305e-06
2.49671e-06
2.49624e-06
2.49536e-06
2.49284e-06
2.4898e-06
2.48952e-06
2.48952e-06
2.48981e-06
2.49484e-06
2.49396e-06
2.49364e-06
2.48979e-06
2.4896e-06
2.48953e-06
2.48953e-06
2.48961e-06
2.4898e-06
2.49487e-06
2.49748e-06
2.49502e-06
2.49301e-06
2.48951e-06
2.48952e-06
2.48954e-06
2.48955e-06
2.48953e-06
2.48953e-06
2.49408e-06
2.49571e-06
2.49313e-06
2.49298e-06
2.48951e-06
2.48952e-06
2.48954e-06
2.48955e-06
2.48953e-06
2.48954e-06
2.49406e-06
2.4923e-06
2.49302e-06
2.4898e-06
2.4896e-06
2.48952e-06
2.48953e-06
2.48961e-06
2.48982e-06
2.49434e-06
2.49442e-06
2.49668e-06
2.49482e-06
2.48979e-06
2.48951e-06
2.48952e-06
2.48979e-06
2.49552e-06
2.49489e-06
2.49769e-06
2.49622e-06
2.49395e-06
2.49486e-06
2.49407e-06
2.49404e-06
2.49431e-06
2.49484e-06
2.49836e-06
2.49749e-06
2.49575e-06
2.49226e-06
2.49435e-06
2.49765e-06
2.47303e-06
2.473e-06
2.47308e-06
2.47029e-06
2.47029e-06
2.47005e-06
2.47041e-06
2.47468e-06
2.47419e-06
2.47307e-06
2.46979e-06
2.46655e-06
2.4661e-06
2.46608e-06
2.46658e-06
2.47388e-06
2.47157e-06
2.47028e-06
2.46655e-06
2.46533e-06
2.46524e-06
2.46523e-06
2.46532e-06
2.4666e-06
2.47472e-06
2.47527e-06
2.473e-06
2.47031e-06
2.46609e-06
2.46524e-06
2.46518e-06
2.46518e-06
2.46522e-06
2.46605e-06
2.47404e-06
2.47362e-06
2.47284e-06
2.47003e-06
2.46607e-06
2.46523e-06
2.46518e-06
2.46517e-06
2.46522e-06
2.46605e-06
2.47358e-06
2.46992e-06
2.47039e-06
2.46659e-06
2.46532e-06
2.46521e-06
2.46521e-06
2.46531e-06
2.46659e-06
2.47456e-06
2.47447e-06
2.47469e-06
2.47387e-06
2.46658e-06
2.46603e-06
2.46602e-06
2.46656e-06
2.47616e-06
2.47341e-06
2.47475e-06
2.47419e-06
2.47156e-06
2.47469e-06
2.47401e-06
2.47354e-06
2.47453e-06
2.47345e-06
2.47588e-06
2.4752e-06
2.47348e-06
2.46988e-06
2.4744e-06
2.4748e-06
2.44698e-06
2.44697e-06
2.44732e-06
2.44415e-06
2.4442e-06
2.44385e-06
2.44442e-06
2.44906e-06
2.44854e-06
2.44733e-06
2.44274e-06
2.4394e-06
2.43925e-06
2.43925e-06
2.43946e-06
2.44751e-06
2.44612e-06
2.44412e-06
2.4394e-06
2.43911e-06
2.43907e-06
2.43908e-06
2.43912e-06
2.43943e-06
2.44944e-06
2.44958e-06
2.44696e-06
2.44419e-06
2.43923e-06
2.43907e-06
2.43906e-06
2.43906e-06
2.43908e-06
2.43925e-06
2.44933e-06
2.44775e-06
2.4469e-06
2.44384e-06
2.43924e-06
2.43907e-06
2.43906e-06
2.43906e-06
2.43908e-06
2.43926e-06
2.44894e-06
2.44417e-06
2.44442e-06
2.43946e-06
2.43911e-06
2.43907e-06
2.43907e-06
2.43912e-06
2.43948e-06
2.44967e-06
2.44866e-06
2.44907e-06
2.44749e-06
2.43943e-06
2.43923e-06
2.43924e-06
2.43943e-06
2.45106e-06
2.44784e-06
2.44929e-06
2.44853e-06
2.4461e-06
2.44943e-06
2.44932e-06
2.44892e-06
2.44966e-06
2.44791e-06
2.45003e-06
2.44956e-06
2.44766e-06
2.44412e-06
2.44861e-06
2.44925e-06
2.42149e-06
2.42144e-06
2.4213e-06
2.41798e-06
2.4181e-06
2.41765e-06
2.41836e-06
2.42308e-06
2.42246e-06
2.42131e-06
2.4156e-06
2.41249e-06
2.41246e-06
2.41246e-06
2.41251e-06
2.42087e-06
2.42026e-06
2.41798e-06
2.41248e-06
2.41243e-06
2.41243e-06
2.41243e-06
2.41244e-06
2.4125e-06
2.42368e-06
2.42382e-06
2.42148e-06
2.41809e-06
2.41246e-06
2.41243e-06
2.41244e-06
2.41244e-06
2.41244e-06
2.41246e-06
2.42416e-06
2.42218e-06
2.42144e-06
2.41762e-06
2.41246e-06
2.41243e-06
2.41244e-06
2.41244e-06
2.41244e-06
2.41247e-06
2.42387e-06
2.41869e-06
2.41837e-06
2.41251e-06
2.41244e-06
2.41244e-06
2.41244e-06
2.41244e-06
2.41251e-06
2.42421e-06
2.42302e-06
2.42309e-06
2.42086e-06
2.4125e-06
2.41246e-06
2.41246e-06
2.4125e-06
2.42545e-06
2.42202e-06
2.42341e-06
2.42246e-06
2.42026e-06
2.42369e-06
2.42416e-06
2.42388e-06
2.42424e-06
2.42214e-06
2.42405e-06
2.42383e-06
2.42216e-06
2.41868e-06
2.42303e-06
2.42345e-06
2.39524e-06
2.39534e-06
2.39501e-06
2.39164e-06
2.39175e-06
2.39124e-06
2.39204e-06
2.39682e-06
2.39618e-06
2.39503e-06
2.38894e-06
2.38587e-06
2.38587e-06
2.38588e-06
2.38588e-06
2.3943e-06
2.39398e-06
2.39164e-06
2.38587e-06
2.38586e-06
2.38587e-06
2.38587e-06
2.38587e-06
2.38588e-06
2.39742e-06
2.39759e-06
2.39536e-06
2.39173e-06
2.38587e-06
2.38587e-06
2.38587e-06
2.38587e-06
2.38587e-06
2.38588e-06
2.39807e-06
2.39603e-06
2.39539e-06
2.39124e-06
2.38587e-06
2.38587e-06
2.38588e-06
2.38588e-06
2.38587e-06
2.38588e-06
2.39782e-06
2.39261e-06
2.39202e-06
2.3859e-06
2.38588e-06
2.38588e-06
2.38588e-06
2.38587e-06
2.38589e-06
2.39804e-06
2.39686e-06
2.39683e-06
2.39433e-06
2.38589e-06
2.38588e-06
2.38588e-06
2.38589e-06
2.39927e-06
2.39579e-06
2.3972e-06
2.39618e-06
2.39399e-06
2.39743e-06
2.39808e-06
2.39782e-06
2.39806e-06
2.3959e-06
2.39778e-06
2.39763e-06
2.39602e-06
2.39259e-06
2.39686e-06
2.3972e-06
2.36892e-06
2.36895e-06
2.36861e-06
2.36518e-06
2.36529e-06
2.36477e-06
2.3656e-06
2.37039e-06
2.36974e-06
2.36861e-06
2.36243e-06
2.35935e-06
2.35935e-06
2.35935e-06
2.35936e-06
2.3678e-06
2.36755e-06
2.36519e-06
2.35935e-06
2.35935e-06
2.35935e-06
2.35935e-06
2.35935e-06
2.35935e-06
2.37099e-06
2.37115e-06
2.36898e-06
2.36528e-06
2.35936e-06
2.35936e-06
2.35936e-06
2.35936e-06
2.35935e-06
2.35935e-06
2.37168e-06
2.36962e-06
2.36888e-06
2.36476e-06
2.35937e-06
2.35936e-06
2.35936e-06
2.35936e-06
2.35935e-06
2.35935e-06
2.37143e-06
2.36622e-06
2.3656e-06
2.35937e-06
2.35936e-06
2.35936e-06
2.35936e-06
2.35935e-06
2.35936e-06
2.37163e-06
2.37044e-06
2.37042e-06
2.36783e-06
2.35936e-06
2.35936e-06
2.35936e-06
2.35935e-06
2.37288e-06
2.36939e-06
2.37076e-06
2.36976e-06
2.36758e-06
2.37101e-06
2.37171e-06
2.37145e-06
2.37166e-06
2.36948e-06
2.37133e-06
2.37122e-06
2.36962e-06
2.36621e-06
2.37047e-06
2.37078e-06
2.34247e-06
2.3425e-06
2.34201e-06
2.33872e-06
2.33883e-06
2.3383e-06
2.33913e-06
2.34392e-06
2.34326e-06
2.34212e-06
2.33587e-06
2.33285e-06
2.33286e-06
2.33285e-06
2.33285e-06
2.34131e-06
2.34108e-06
2.3387e-06
2.33285e-06
2.33285e-06
2.33285e-06
2.33285e-06
2.33285e-06
2.33286e-06
2.34453e-06
2.34468e-06
2.34251e-06
2.33882e-06
2.33285e-06
2.33285e-06
2.33285e-06
2.33285e-06
2.33285e-06
2.33285e-06
2.34522e-06
2.34315e-06
2.34252e-06
2.33828e-06
2.33285e-06
2.33285e-06
2.33285e-06
2.33285e-06
2.33285e-06
2.33285e-06
2.34497e-06
2.33974e-06
2.33912e-06
2.33285e-06
2.33285e-06
2.33285e-06
2.33285e-06
2.33285e-06
2.33285e-06
2.34516e-06
2.34397e-06
2.34394e-06
2.34132e-06
2.33286e-06
2.33285e-06
2.33285e-06
2.33285e-06
2.3464e-06
2.3429e-06
2.34428e-06
2.34328e-06
2.34109e-06
2.34454e-06
2.34525e-06
2.34499e-06
2.34519e-06
2.343e-06
2.34486e-06
2.34475e-06
2.34317e-06
2.33977e-06
2.34399e-06
2.34428e-06
2.31598e-06
2.31601e-06
2.31552e-06
2.31223e-06
2.31234e-06
2.31179e-06
2.31263e-06
2.31743e-06
2.31678e-06
2.31563e-06
2.30938e-06
2.30636e-06
2.30636e-06
2.30636e-06
2.30635e-06
2.31482e-06
2.3146e-06
2.31218e-06
2.30636e-06
2.30636e-06
2.30636e-06
2.30636e-06
2.30635e-06
2.30635e-06
2.31803e-06
2.3182e-06
2.31592e-06
2.31238e-06
2.30635e-06
2.30635e-06
2.30635e-06
2.30635e-06
2.30635e-06
2.30635e-06
2.31873e-06
2.31667e-06
2.31589e-06
2.31181e-06
2.30635e-06
2.30635e-06
2.30635e-06
2.30635e-06
2.30635e-06
2.30635e-06
2.31849e-06
2.31328e-06
2.31262e-06
2.30635e-06
2.30635e-06
2.30635e-06
2.30635e-06
2.30635e-06
2.30635e-06
2.31868e-06
2.31749e-06
2.31745e-06
2.31481e-06
2.30636e-06
2.30635e-06
2.30635e-06
2.30635e-06
2.31992e-06
2.31643e-06
2.3178e-06
2.31679e-06
2.31458e-06
2.31803e-06
2.31875e-06
2.31849e-06
2.31869e-06
2.31652e-06
2.31838e-06
2.31824e-06
2.31666e-06
2.31326e-06
2.31751e-06
2.3178e-06
2.28949e-06
2.28952e-06
2.28904e-06
2.28574e-06
2.28585e-06
2.2853e-06
2.28614e-06
2.29094e-06
2.29028e-06
2.28914e-06
2.28289e-06
2.27986e-06
2.27986e-06
2.27986e-06
2.27986e-06
2.28833e-06
2.2881e-06
2.28574e-06
2.27987e-06
2.27986e-06
2.27986e-06
2.27986e-06
2.27986e-06
2.27986e-06
2.29154e-06
2.2917e-06
2.28945e-06
2.28587e-06
2.27986e-06
2.27986e-06
2.27986e-06
2.27986e-06
2.27986e-06
2.27986e-06
2.29224e-06
2.29018e-06
2.28936e-06
2.28529e-06
2.27986e-06
2.27986e-06
2.27986e-06
2.27986e-06
2.27986e-06
2.27986e-06
2.292e-06
2.28679e-06
2.2861e-06
2.27985e-06
2.27985e-06
2.27986e-06
2.27986e-06
2.27986e-06
2.27986e-06
2.29218e-06
2.29099e-06
2.29092e-06
2.28831e-06
2.27985e-06
2.27985e-06
2.27986e-06
2.27986e-06
2.29343e-06
2.28994e-06
2.29131e-06
2.29027e-06
2.28808e-06
2.29154e-06
2.29225e-06
2.29201e-06
2.2922e-06
2.29002e-06
2.29188e-06
2.29175e-06
2.29017e-06
2.28678e-06
2.29102e-06
2.29131e-06
2.263e-06
2.26304e-06
2.26264e-06
2.25923e-06
2.25934e-06
2.2588e-06
2.25965e-06
2.26444e-06
2.26379e-06
2.26264e-06
2.2564e-06
2.25336e-06
2.25336e-06
2.25336e-06
2.25336e-06
2.26183e-06
2.26161e-06
2.2592e-06
2.25336e-06
2.25336e-06
2.25336e-06
2.25336e-06
2.25336e-06
2.25336e-06
2.26504e-06
2.26521e-06
2.26288e-06
2.25935e-06
2.25336e-06
2.25336e-06
2.25336e-06
2.25336e-06
2.25336e-06
2.25336e-06
2.26574e-06
2.26368e-06
2.26295e-06
2.25881e-06
2.25336e-06
2.25336e-06
2.25336e-06
2.25336e-06
2.25336e-06
2.25336e-06
2.2655e-06
2.26029e-06
2.25963e-06
2.25336e-06
2.25336e-06
2.25336e-06
2.25336e-06
2.25336e-06
2.25336e-06
2.26569e-06
2.2645e-06
2.26444e-06
2.26183e-06
2.25336e-06
2.25336e-06
2.25336e-06
2.25336e-06
2.26694e-06
2.26345e-06
2.26481e-06
2.26378e-06
2.2616e-06
2.26505e-06
2.26574e-06
2.26551e-06
2.26571e-06
2.26353e-06
2.26538e-06
2.26525e-06
2.26367e-06
2.26029e-06
2.26451e-06
2.2648e-06
2.23649e-06
2.23652e-06
2.23615e-06
2.23273e-06
2.23285e-06
2.2323e-06
2.23314e-06
2.23794e-06
2.23729e-06
2.23615e-06
2.2299e-06
2.22686e-06
2.22686e-06
2.22686e-06
2.22686e-06
2.23533e-06
2.23511e-06
2.23272e-06
2.22686e-06
2.22686e-06
2.22686e-06
2.22686e-06
2.22686e-06
2.22686e-06
2.23854e-06
2.23871e-06
2.23649e-06
2.23284e-06
2.22686e-06
2.22686e-06
2.22686e-06
2.22686e-06
2.22686e-06
2.22686e-06
2.23925e-06
2.23719e-06
2.23652e-06
2.23229e-06
2.22686e-06
2.22686e-06
2.22686e-06
2.22686e-06
2.22686e-06
2.22686e-06
2.239e-06
2.23379e-06
2.23314e-06
2.22686e-06
2.22686e-06
2.22686e-06
2.22686e-06
2.22686e-06
2.22686e-06
2.23919e-06
2.238e-06
2.23795e-06
2.23533e-06
2.22686e-06
2.22686e-06
2.22686e-06
2.22686e-06
2.24043e-06
2.23695e-06
2.23831e-06
2.23729e-06
2.2351e-06
2.23855e-06
2.23925e-06
2.23902e-06
2.23922e-06
2.23703e-06
2.23889e-06
2.23875e-06
2.23717e-06
2.23379e-06
2.23802e-06
2.23831e-06
2.20999e-06
2.21003e-06
2.20966e-06
2.20623e-06
2.20634e-06
2.2058e-06
2.20665e-06
2.21144e-06
2.21079e-06
2.20966e-06
2.20341e-06
2.20036e-06
2.20036e-06
2.20036e-06
2.20036e-06
2.20883e-06
2.20861e-06
2.20625e-06
2.20036e-06
2.20036e-06
2.20036e-06
2.20036e-06
2.20037e-06
2.20037e-06
2.21205e-06
2.21221e-06
2.20991e-06
2.20634e-06
2.20036e-06
2.20036e-06
2.20037e-06
2.20037e-06
2.20037e-06
2.20037e-06
2.21275e-06
2.21069e-06
2.21001e-06
2.20581e-06
2.20037e-06
2.20037e-06
2.20037e-06
2.20037e-06
2.20037e-06
2.20037e-06
2.21251e-06
2.2073e-06
2.20662e-06
2.20037e-06
2.20037e-06
2.20037e-06
2.20037e-06
2.20037e-06
2.20037e-06
2.21269e-06
2.2115e-06
2.21144e-06
2.20884e-06
2.20037e-06
2.20037e-06
2.20037e-06
2.20037e-06
2.21395e-06
2.21045e-06
2.21182e-06
2.21079e-06
2.20861e-06
2.21206e-06
2.21275e-06
2.21252e-06
2.21272e-06
2.21054e-06
2.2124e-06
2.21226e-06
2.21068e-06
2.20729e-06
2.21152e-06
2.21182e-06
2.18349e-06
2.18353e-06
2.18303e-06
2.17974e-06
2.17985e-06
2.17931e-06
2.18015e-06
2.18494e-06
2.18429e-06
2.18314e-06
2.17691e-06
2.17386e-06
2.17386e-06
2.17387e-06
2.17387e-06
2.18233e-06
2.18211e-06
2.17973e-06
2.17386e-06
2.17386e-06
2.17387e-06
2.17387e-06
2.17387e-06
2.17387e-06
2.18555e-06
2.18573e-06
2.18361e-06
2.17981e-06
2.17386e-06
2.17386e-06
2.17387e-06
2.17387e-06
2.17387e-06
2.17387e-06
2.18625e-06
2.18419e-06
2.18342e-06
2.17932e-06
2.17387e-06
2.17387e-06
2.17387e-06
2.17387e-06
2.17387e-06
2.17387e-06
2.18601e-06
2.18079e-06
2.18014e-06
2.17387e-06
2.17387e-06
2.17387e-06
2.17387e-06
2.17387e-06
2.17387e-06
2.1862e-06
2.18501e-06
2.18496e-06
2.18235e-06
2.17387e-06
2.17387e-06
2.17387e-06
2.17387e-06
2.18745e-06
2.18396e-06
2.18532e-06
2.1843e-06
2.18212e-06
2.18557e-06
2.18628e-06
2.18604e-06
2.18623e-06
2.18404e-06
2.1859e-06
2.18577e-06
2.18419e-06
2.1808e-06
2.18503e-06
2.18533e-06
2.15699e-06
2.15703e-06
2.15653e-06
2.15324e-06
2.15335e-06
2.15281e-06
2.15365e-06
2.15845e-06
2.1578e-06
2.15665e-06
2.1504e-06
2.14737e-06
2.14737e-06
2.14737e-06
2.14737e-06
2.15584e-06
2.15562e-06
2.15324e-06
2.14737e-06
2.14737e-06
2.14737e-06
2.14737e-06
2.14737e-06
2.14737e-06
2.15905e-06
2.15922e-06
2.15706e-06
2.15333e-06
2.14737e-06
2.14737e-06
2.14737e-06
2.14737e-06
2.14737e-06
2.14737e-06
2.15975e-06
2.1577e-06
2.15708e-06
2.15281e-06
2.14737e-06
2.14737e-06
2.14737e-06
2.14737e-06
2.14737e-06
2.14737e-06
2.15951e-06
2.1543e-06
2.15362e-06
2.14738e-06
2.14738e-06
2.14737e-06
2.14737e-06
2.14737e-06
2.14737e-06
2.1597e-06
2.15851e-06
2.15847e-06
2.15584e-06
2.14738e-06
2.14737e-06
2.14737e-06
2.14737e-06
2.16095e-06
2.15746e-06
2.15882e-06
2.1578e-06
2.15561e-06
2.15907e-06
2.15978e-06
2.15954e-06
2.15972e-06
2.15754e-06
2.1594e-06
2.15927e-06
2.15769e-06
2.1543e-06
2.15853e-06
2.15882e-06
2.13051e-06
2.13055e-06
2.13005e-06
2.12674e-06
2.12685e-06
2.12631e-06
2.12716e-06
2.13195e-06
2.1313e-06
2.13015e-06
2.1239e-06
2.12087e-06
2.12087e-06
2.12087e-06
2.12087e-06
2.12934e-06
2.12912e-06
2.12673e-06
2.12087e-06
2.12087e-06
2.12087e-06
2.12087e-06
2.12087e-06
2.12087e-06
2.13255e-06
2.13272e-06
2.13049e-06
2.12685e-06
2.12088e-06
2.12087e-06
2.12087e-06
2.12087e-06
2.12087e-06
2.12088e-06
2.13326e-06
2.1312e-06
2.13046e-06
2.12631e-06
2.12087e-06
2.12087e-06
2.12087e-06
2.12087e-06
2.12087e-06
2.12088e-06
2.13302e-06
2.1278e-06
2.12715e-06
2.12087e-06
2.12088e-06
2.12088e-06
2.12088e-06
2.12088e-06
2.12088e-06
2.13321e-06
2.13202e-06
2.13198e-06
2.12933e-06
2.12088e-06
2.12087e-06
2.12087e-06
2.12087e-06
2.13445e-06
2.13096e-06
2.13233e-06
2.13131e-06
2.12912e-06
2.13257e-06
2.13327e-06
2.13303e-06
2.13322e-06
2.13104e-06
2.1329e-06
2.13279e-06
2.13119e-06
2.12779e-06
2.13203e-06
2.13233e-06
2.10401e-06
2.10404e-06
2.10354e-06
2.10025e-06
2.10036e-06
2.09981e-06
2.10066e-06
2.10546e-06
2.1048e-06
2.10365e-06
2.09741e-06
2.09438e-06
2.09438e-06
2.09438e-06
2.09438e-06
2.10285e-06
2.10262e-06
2.10024e-06
2.09438e-06
2.09437e-06
2.09438e-06
2.09438e-06
2.09438e-06
2.09438e-06
2.10606e-06
2.10622e-06
2.10393e-06
2.10035e-06
2.09437e-06
2.09438e-06
2.09438e-06
2.09438e-06
2.09438e-06
2.09438e-06
2.10676e-06
2.1047e-06
2.10405e-06
2.09981e-06
2.09438e-06
2.09438e-06
2.09438e-06
2.09438e-06
2.09438e-06
2.09438e-06
2.10652e-06
2.1013e-06
2.10066e-06
2.09438e-06
2.09438e-06
2.09438e-06
2.09438e-06
2.09438e-06
2.09438e-06
2.10671e-06
2.10552e-06
2.10546e-06
2.10284e-06
2.09437e-06
2.09438e-06
2.09438e-06
2.09438e-06
2.10795e-06
2.10446e-06
2.10583e-06
2.1048e-06
2.10262e-06
2.10606e-06
2.10675e-06
2.10653e-06
2.10672e-06
2.10455e-06
2.10639e-06
2.10627e-06
2.10469e-06
2.10127e-06
2.10552e-06
2.10583e-06
2.07751e-06
2.07754e-06
2.07705e-06
2.07375e-06
2.07387e-06
2.07332e-06
2.07416e-06
2.07896e-06
2.0783e-06
2.07716e-06
2.07091e-06
2.06788e-06
2.06788e-06
2.06788e-06
2.06788e-06
2.07635e-06
2.07613e-06
2.07374e-06
2.06788e-06
2.06788e-06
2.06788e-06
2.06788e-06
2.06788e-06
2.06788e-06
2.07956e-06
2.07973e-06
2.07742e-06
2.07386e-06
2.06788e-06
2.06788e-06
2.06788e-06
2.06788e-06
2.06788e-06
2.06788e-06
2.08027e-06
2.0782e-06
2.07755e-06
2.07332e-06
2.06788e-06
2.06788e-06
2.06788e-06
2.06788e-06
2.06788e-06
2.06788e-06
2.08003e-06
2.07481e-06
2.07416e-06
2.06787e-06
2.06787e-06
2.06788e-06
2.06788e-06
2.06789e-06
2.06789e-06
2.08022e-06
2.07902e-06
2.07895e-06
2.07634e-06
2.06787e-06
2.06788e-06
2.06788e-06
2.06789e-06
2.08147e-06
2.07798e-06
2.07934e-06
2.0783e-06
2.07611e-06
2.07956e-06
2.08023e-06
2.08003e-06
2.08023e-06
2.07807e-06
2.07991e-06
2.07974e-06
2.07828e-06
2.07473e-06
2.07902e-06
2.07934e-06
2.05102e-06
2.05106e-06
2.05056e-06
2.04725e-06
2.04736e-06
2.04682e-06
2.04767e-06
2.05246e-06
2.05181e-06
2.05065e-06
2.04441e-06
2.04138e-06
2.04138e-06
2.04138e-06
2.04138e-06
2.04985e-06
2.04963e-06
2.04723e-06
2.04138e-06
2.04138e-06
2.04138e-06
2.04138e-06
2.04138e-06
2.04138e-06
2.05306e-06
2.05323e-06
2.05101e-06
2.04737e-06
2.04138e-06
2.04138e-06
2.04138e-06
2.04138e-06
2.04138e-06
2.04138e-06
2.05376e-06
2.0517e-06
2.05095e-06
2.04681e-06
2.04138e-06
2.04138e-06
2.04138e-06
2.04138e-06
2.04138e-06
2.04138e-06
2.05352e-06
2.0483e-06
2.04766e-06
2.04138e-06
2.04138e-06
2.04138e-06
2.04138e-06
2.04138e-06
2.04139e-06
2.05372e-06
2.05252e-06
2.05247e-06
2.04985e-06
2.04138e-06
2.04138e-06
2.04138e-06
2.04139e-06
2.05497e-06
2.05146e-06
2.05284e-06
2.05181e-06
2.04963e-06
2.05307e-06
2.05375e-06
2.05353e-06
2.05374e-06
2.05157e-06
2.05341e-06
2.05329e-06
2.05177e-06
2.04829e-06
2.05252e-06
2.05283e-06
2.02451e-06
2.02455e-06
2.02406e-06
2.02076e-06
2.02087e-06
2.02032e-06
2.02116e-06
2.02596e-06
2.02531e-06
2.02416e-06
2.01791e-06
2.01488e-06
2.01488e-06
2.01488e-06
2.01488e-06
2.02335e-06
2.02313e-06
2.02074e-06
2.01489e-06
2.01488e-06
2.01488e-06
2.01488e-06
2.01488e-06
2.01488e-06
2.02656e-06
2.02673e-06
2.02443e-06
2.02087e-06
2.01489e-06
2.01488e-06
2.01488e-06
2.01488e-06
2.01488e-06
2.01488e-06
2.02726e-06
2.0252e-06
2.0245e-06
2.02031e-06
2.01488e-06
2.01488e-06
2.01488e-06
2.01488e-06
2.01488e-06
2.01488e-06
2.02702e-06
2.0218e-06
2.02116e-06
2.01488e-06
2.01488e-06
2.01488e-06
2.01488e-06
2.01488e-06
2.01488e-06
2.02722e-06
2.02602e-06
2.02598e-06
2.02334e-06
2.01489e-06
2.01488e-06
2.01488e-06
2.01488e-06
2.02846e-06
2.02497e-06
2.02633e-06
2.02531e-06
2.02312e-06
2.02656e-06
2.02729e-06
2.02708e-06
2.02724e-06
2.02506e-06
2.0269e-06
2.02672e-06
2.02514e-06
2.02187e-06
2.02607e-06
2.02635e-06
1.99801e-06
1.99803e-06
1.99756e-06
1.99426e-06
1.99438e-06
1.99382e-06
1.99466e-06
1.99946e-06
1.99881e-06
1.99766e-06
1.99142e-06
1.98839e-06
1.98839e-06
1.98838e-06
1.98838e-06
1.99685e-06
1.99663e-06
1.99424e-06
1.98838e-06
1.98839e-06
1.98839e-06
1.98838e-06
1.98838e-06
1.98838e-06
2.00007e-06
2.00023e-06
1.99794e-06
1.99436e-06
1.98838e-06
1.98839e-06
1.98839e-06
1.98838e-06
1.98838e-06
1.98838e-06
2.00077e-06
1.99871e-06
1.998e-06
1.99381e-06
1.98839e-06
1.98839e-06
1.98839e-06
1.98838e-06
1.98838e-06
1.98838e-06
2.00052e-06
1.99531e-06
1.99468e-06
1.98839e-06
1.98839e-06
1.98839e-06
1.98839e-06
1.98838e-06
1.98838e-06
2.00071e-06
1.99952e-06
1.99949e-06
1.99685e-06
1.98839e-06
1.98839e-06
1.98839e-06
1.98838e-06
2.00196e-06
1.99846e-06
1.99983e-06
1.99882e-06
1.99663e-06
2.00007e-06
2.00081e-06
2.00056e-06
2.00074e-06
1.99857e-06
2.0004e-06
2.00024e-06
1.99863e-06
1.99541e-06
1.99952e-06
1.99989e-06
1.97152e-06
1.97153e-06
1.97106e-06
1.96776e-06
1.96788e-06
1.96732e-06
1.96816e-06
1.97296e-06
1.97231e-06
1.97116e-06
1.96492e-06
1.96189e-06
1.96189e-06
1.96189e-06
1.96189e-06
1.97035e-06
1.97013e-06
1.96774e-06
1.96189e-06
1.96189e-06
1.96189e-06
1.96189e-06
1.96189e-06
1.96189e-06
1.97357e-06
1.97374e-06
1.97152e-06
1.96787e-06
1.96189e-06
1.96189e-06
1.96189e-06
1.96189e-06
1.96189e-06
1.96189e-06
1.97427e-06
1.97221e-06
1.97156e-06
1.96733e-06
1.96189e-06
1.96189e-06
1.96189e-06
1.96189e-06
1.96189e-06
1.96189e-06
1.97403e-06
1.96881e-06
1.96818e-06
1.96189e-06
1.96189e-06
1.96189e-06
1.96189e-06
1.96189e-06
1.96189e-06
1.97422e-06
1.97303e-06
1.97298e-06
1.97036e-06
1.96188e-06
1.96189e-06
1.96189e-06
1.9619e-06
1.97547e-06
1.97197e-06
1.97334e-06
1.97232e-06
1.97013e-06
1.97357e-06
1.97426e-06
1.97406e-06
1.97423e-06
1.97207e-06
1.97391e-06
1.97376e-06
1.97227e-06
1.96873e-06
1.97299e-06
1.97336e-06
1.94502e-06
1.94504e-06
1.94456e-06
1.94126e-06
1.94139e-06
1.94082e-06
1.94166e-06
1.94647e-06
1.94581e-06
1.94467e-06
1.93842e-06
1.9354e-06
1.9354e-06
1.93539e-06
1.93539e-06
1.94386e-06
1.94364e-06
1.94125e-06
1.93539e-06
1.93539e-06
1.93539e-06
1.93539e-06
1.93539e-06
1.93539e-06
1.94707e-06
1.94724e-06
1.94495e-06
1.94137e-06
1.93539e-06
1.93539e-06
1.93539e-06
1.93539e-06
1.93539e-06
1.93539e-06
1.94777e-06
1.94571e-06
1.94505e-06
1.94083e-06
1.93539e-06
1.93539e-06
1.93539e-06
1.93539e-06
1.93539e-06
1.93539e-06
1.94753e-06
1.94232e-06
1.94168e-06
1.93539e-06
1.93539e-06
1.93539e-06
1.93539e-06
1.93539e-06
1.93539e-06
1.94773e-06
1.94654e-06
1.94648e-06
1.94386e-06
1.93539e-06
1.93539e-06
1.9354e-06
1.9354e-06
1.94897e-06
1.94548e-06
1.94684e-06
1.94582e-06
1.94364e-06
1.94708e-06
1.94777e-06
1.94754e-06
1.94775e-06
1.94557e-06
1.94741e-06
1.9473e-06
1.94578e-06
1.9423e-06
1.94652e-06
1.94684e-06
1.91844e-06
1.91851e-06
1.91807e-06
1.91478e-06
1.91488e-06
1.91432e-06
1.91516e-06
1.91999e-06
1.91932e-06
1.91817e-06
1.91192e-06
1.90889e-06
1.90889e-06
1.90889e-06
1.90889e-06
1.91736e-06
1.91714e-06
1.91475e-06
1.90889e-06
1.90889e-06
1.90889e-06
1.90889e-06
1.90889e-06
1.90889e-06
1.92057e-06
1.92074e-06
1.91854e-06
1.91488e-06
1.9089e-06
1.90889e-06
1.90889e-06
1.90889e-06
1.90889e-06
1.90889e-06
1.92128e-06
1.91921e-06
1.91852e-06
1.91432e-06
1.9089e-06
1.90889e-06
1.90889e-06
1.90889e-06
1.90889e-06
1.90889e-06
1.92103e-06
1.91582e-06
1.91518e-06
1.9089e-06
1.9089e-06
1.90889e-06
1.90889e-06
1.90889e-06
1.90889e-06
1.92122e-06
1.92003e-06
1.91999e-06
1.91735e-06
1.9089e-06
1.90889e-06
1.90889e-06
1.90889e-06
1.92247e-06
1.91897e-06
1.92034e-06
1.91933e-06
1.91713e-06
1.92057e-06
1.92129e-06
1.92108e-06
1.92125e-06
1.91907e-06
1.92092e-06
1.92074e-06
1.91918e-06
1.91584e-06
1.92005e-06
1.9204e-06
1.89195e-06
1.89203e-06
1.89157e-06
1.88827e-06
1.88837e-06
1.88782e-06
1.88868e-06
1.8935e-06
1.89283e-06
1.89167e-06
1.88542e-06
1.88239e-06
1.88239e-06
1.8824e-06
1.8824e-06
1.89087e-06
1.89064e-06
1.88825e-06
1.88239e-06
1.8824e-06
1.8824e-06
1.8824e-06
1.8824e-06
1.8824e-06
1.89408e-06
1.89424e-06
1.892e-06
1.88837e-06
1.8824e-06
1.8824e-06
1.8824e-06
1.8824e-06
1.8824e-06
1.8824e-06
1.89478e-06
1.89272e-06
1.89205e-06
1.88783e-06
1.88239e-06
1.8824e-06
1.8824e-06
1.8824e-06
1.88239e-06
1.88239e-06
1.89453e-06
1.88932e-06
1.88869e-06
1.8824e-06
1.8824e-06
1.8824e-06
1.88239e-06
1.88239e-06
1.88239e-06
1.89472e-06
1.89353e-06
1.89349e-06
1.89085e-06
1.8824e-06
1.8824e-06
1.88239e-06
1.88239e-06
1.89598e-06
1.89247e-06
1.89384e-06
1.89283e-06
1.89064e-06
1.89407e-06
1.89479e-06
1.89457e-06
1.89474e-06
1.89257e-06
1.89441e-06
1.89425e-06
1.89262e-06
1.88939e-06
1.89353e-06
1.89389e-06
1.86557e-06
1.86559e-06
1.86508e-06
1.86177e-06
1.86187e-06
1.86133e-06
1.8622e-06
1.867e-06
1.86633e-06
1.86517e-06
1.85892e-06
1.8559e-06
1.8559e-06
1.8559e-06
1.8559e-06
1.86437e-06
1.86415e-06
1.86176e-06
1.8559e-06
1.8559e-06
1.8559e-06
1.8559e-06
1.8559e-06
1.8559e-06
1.86758e-06
1.86775e-06
1.86544e-06
1.86189e-06
1.8559e-06
1.8559e-06
1.8559e-06
1.8559e-06
1.8559e-06
1.8559e-06
1.86828e-06
1.86622e-06
1.86556e-06
1.86134e-06
1.8559e-06
1.8559e-06
1.8559e-06
1.8559e-06
1.8559e-06
1.8559e-06
1.86804e-06
1.86283e-06
1.86218e-06
1.8559e-06
1.8559e-06
1.8559e-06
1.8559e-06
1.8559e-06
1.8559e-06
1.86823e-06
1.86704e-06
1.86699e-06
1.86435e-06
1.8559e-06
1.8559e-06
1.8559e-06
1.85589e-06
1.86947e-06
1.86598e-06
1.86735e-06
1.86633e-06
1.86413e-06
1.86758e-06
1.86833e-06
1.86807e-06
1.86825e-06
1.86607e-06
1.86791e-06
1.86778e-06
1.86616e-06
1.86287e-06
1.86707e-06
1.86736e-06
1.83894e-06
1.83906e-06
1.83858e-06
1.83528e-06
1.83538e-06
1.83484e-06
1.83569e-06
1.84049e-06
1.83983e-06
1.83867e-06
1.83243e-06
1.8294e-06
1.8294e-06
1.8294e-06
1.8294e-06
1.83787e-06
1.83765e-06
1.83526e-06
1.8294e-06
1.8294e-06
1.8294e-06
1.8294e-06
1.8294e-06
1.8294e-06
1.84108e-06
1.84125e-06
1.83905e-06
1.83541e-06
1.8294e-06
1.8294e-06
1.8294e-06
1.8294e-06
1.8294e-06
1.8294e-06
1.84179e-06
1.83973e-06
1.83907e-06
1.83484e-06
1.8294e-06
1.8294e-06
1.8294e-06
1.8294e-06
1.8294e-06
1.8294e-06
1.84154e-06
1.83633e-06
1.83567e-06
1.8294e-06
1.8294e-06
1.8294e-06
1.8294e-06
1.8294e-06
1.8294e-06
1.84173e-06
1.84054e-06
1.84048e-06
1.83784e-06
1.8294e-06
1.8294e-06
1.8294e-06
1.8294e-06
1.84298e-06
1.83948e-06
1.84085e-06
1.83983e-06
1.83763e-06
1.84109e-06
1.84181e-06
1.84155e-06
1.84174e-06
1.83957e-06
1.84142e-06
1.84129e-06
1.83971e-06
1.83633e-06
1.84055e-06
1.84085e-06
1.81254e-06
1.81257e-06
1.81209e-06
1.80879e-06
1.8089e-06
1.80835e-06
1.80919e-06
1.81398e-06
1.81333e-06
1.81219e-06
1.80592e-06
1.80291e-06
1.80291e-06
1.80291e-06
1.80291e-06
1.81137e-06
1.81115e-06
1.80875e-06
1.80291e-06
1.80291e-06
1.80291e-06
1.80291e-06
1.80291e-06
1.8029e-06
1.81459e-06
1.81475e-06
1.8125e-06
1.80892e-06
1.80291e-06
1.80291e-06
1.80291e-06
1.80291e-06
1.80291e-06
1.8029e-06
1.81529e-06
1.81323e-06
1.81246e-06
1.80834e-06
1.8029e-06
1.8029e-06
1.8029e-06
1.8029e-06
1.8029e-06
1.8029e-06
1.81504e-06
1.80983e-06
1.80916e-06
1.8029e-06
1.8029e-06
1.8029e-06
1.8029e-06
1.8029e-06
1.8029e-06
1.81523e-06
1.81404e-06
1.81399e-06
1.81135e-06
1.8029e-06
1.8029e-06
1.8029e-06
1.8029e-06
1.81648e-06
1.81299e-06
1.81435e-06
1.81333e-06
1.81113e-06
1.81458e-06
1.81529e-06
1.81505e-06
1.81525e-06
1.81307e-06
1.81493e-06
1.8148e-06
1.8132e-06
1.80981e-06
1.81405e-06
1.81434e-06
1.78605e-06
1.78608e-06
1.78559e-06
1.78229e-06
1.7824e-06
1.78185e-06
1.78269e-06
1.78749e-06
1.78683e-06
1.7857e-06
1.77944e-06
1.77641e-06
1.77641e-06
1.77641e-06
1.77641e-06
1.78488e-06
1.78465e-06
1.78229e-06
1.77642e-06
1.77641e-06
1.77641e-06
1.77641e-06
1.77641e-06
1.77641e-06
1.78809e-06
1.78825e-06
1.78597e-06
1.78243e-06
1.77642e-06
1.77641e-06
1.77641e-06
1.77641e-06
1.77641e-06
1.77641e-06
1.78879e-06
1.78673e-06
1.78593e-06
1.78186e-06
1.77641e-06
1.77641e-06
1.77641e-06
1.77641e-06
1.77641e-06
1.77641e-06
1.78855e-06
1.78333e-06
1.78264e-06
1.7764e-06
1.7764e-06
1.7764e-06
1.77641e-06
1.77641e-06
1.77641e-06
1.78873e-06
1.78755e-06
1.78747e-06
1.78484e-06
1.7764e-06
1.7764e-06
1.7764e-06
1.77641e-06
1.78998e-06
1.78649e-06
1.78786e-06
1.78682e-06
1.78461e-06
1.78809e-06
1.78881e-06
1.78856e-06
1.78875e-06
1.78657e-06
1.78843e-06
1.78831e-06
1.78671e-06
1.78332e-06
1.78755e-06
1.78785e-06
1.75954e-06
1.75957e-06
1.75919e-06
1.75578e-06
1.7559e-06
1.75535e-06
1.7562e-06
1.76099e-06
1.76034e-06
1.75919e-06
1.75295e-06
1.74991e-06
1.74991e-06
1.74991e-06
1.74991e-06
1.75838e-06
1.75816e-06
1.75576e-06
1.74992e-06
1.74991e-06
1.74991e-06
1.74991e-06
1.74991e-06
1.74991e-06
1.76159e-06
1.76176e-06
1.75937e-06
1.75593e-06
1.74991e-06
1.74991e-06
1.74991e-06
1.74991e-06
1.74991e-06
1.74991e-06
1.76229e-06
1.76023e-06
1.75956e-06
1.75534e-06
1.74991e-06
1.74991e-06
1.74991e-06
1.74991e-06
1.74991e-06
1.74991e-06
1.76205e-06
1.75684e-06
1.75617e-06
1.74991e-06
1.74991e-06
1.74991e-06
1.74991e-06
1.74991e-06
1.74991e-06
1.76224e-06
1.76105e-06
1.761e-06
1.75838e-06
1.74991e-06
1.74991e-06
1.74991e-06
1.74991e-06
1.76348e-06
1.76e-06
1.76136e-06
1.76034e-06
1.75815e-06
1.7616e-06
1.7623e-06
1.76206e-06
1.76226e-06
1.76007e-06
1.76194e-06
1.7618e-06
1.76022e-06
1.75683e-06
1.76108e-06
1.76137e-06
1.73305e-06
1.73309e-06
1.73271e-06
1.72928e-06
1.7294e-06
1.72886e-06
1.7297e-06
1.73449e-06
1.73384e-06
1.73271e-06
1.72645e-06
1.72341e-06
1.72341e-06
1.72341e-06
1.72341e-06
1.73188e-06
1.73166e-06
1.72928e-06
1.72342e-06
1.72341e-06
1.72341e-06
1.72341e-06
1.72341e-06
1.72342e-06
1.7351e-06
1.73527e-06
1.73304e-06
1.72939e-06
1.72341e-06
1.72341e-06
1.72341e-06
1.72341e-06
1.72341e-06
1.72341e-06
1.7358e-06
1.73374e-06
1.73306e-06
1.72886e-06
1.72341e-06
1.72341e-06
1.72341e-06
1.72341e-06
1.72341e-06
1.72341e-06
1.73555e-06
1.73034e-06
1.72968e-06
1.72341e-06
1.72341e-06
1.72341e-06
1.72341e-06
1.72341e-06
1.72341e-06
1.73574e-06
1.73455e-06
1.73448e-06
1.73187e-06
1.72341e-06
1.72341e-06
1.72342e-06
1.72341e-06
1.73699e-06
1.7335e-06
1.73486e-06
1.73383e-06
1.73165e-06
1.7351e-06
1.7358e-06
1.73556e-06
1.73577e-06
1.73358e-06
1.73544e-06
1.73531e-06
1.73372e-06
1.73034e-06
1.73458e-06
1.73486e-06
1.70655e-06
1.70658e-06
1.70621e-06
1.70278e-06
1.7029e-06
1.70236e-06
1.7032e-06
1.70799e-06
1.70734e-06
1.70621e-06
1.69995e-06
1.69692e-06
1.69692e-06
1.69692e-06
1.69692e-06
1.70538e-06
1.70516e-06
1.70277e-06
1.69691e-06
1.69691e-06
1.69692e-06
1.69692e-06
1.69692e-06
1.69692e-06
1.7086e-06
1.70877e-06
1.70653e-06
1.7029e-06
1.69691e-06
1.69691e-06
1.69691e-06
1.69692e-06
1.69692e-06
1.69692e-06
1.7093e-06
1.70724e-06
1.70654e-06
1.70235e-06
1.69691e-06
1.69691e-06
1.69691e-06
1.69692e-06
1.69692e-06
1.69692e-06
1.70906e-06
1.70384e-06
1.70319e-06
1.69691e-06
1.69691e-06
1.69691e-06
1.69691e-06
1.69692e-06
1.69692e-06
1.70924e-06
1.70806e-06
1.70799e-06
1.70538e-06
1.69691e-06
1.69691e-06
1.69692e-06
1.69692e-06
1.71049e-06
1.707e-06
1.70837e-06
1.70734e-06
1.70515e-06
1.7086e-06
1.70931e-06