/*--------------------------------*- C++ -*----------------------------------*\
| =========                 |                                                 |
| \\      /  F ield         | OpenFOAM: The Open Source CFD Toolbox           |
|  \\    /   O peration     | Version:  v2012                                 |
|   \\  /    A nd           | Website:  www.openfoam.com                      |
|    \\/     M anipulation  |                                                 |
\*---------------------------------------------------------------------------*/
FoamFile
{
    version     2.0;
    format      ascii;
    class       volScalarField;
    location    "14.5";
    object      p;
}
// * * * * * * * * * * * * * * * * * * * * * * * * * * * * * * * * * * * * * //

dimensions      [0 2 -2 0 0 0 0];


internalField   nonuniform List<scalar> 
244288
(
1.48236e-06
1.48249e-06
1.48245e-06
1.48236e-06
1.48231e-06
1.48237e-06
1.48246e-06
1.48249e-06
1.48252e-06
1.48229e-06
1.48204e-06
1.48194e-06
1.48206e-06
1.48233e-06
1.48253e-06
1.48245e-06
1.48229e-06
1.48189e-06
1.48154e-06
1.48142e-06
1.48157e-06
1.48194e-06
1.48233e-06
1.48244e-06
1.48236e-06
1.48204e-06
1.48154e-06
1.48115e-06
1.48102e-06
1.48119e-06
1.4816e-06
1.48209e-06
1.48237e-06
1.48236e-06
1.48231e-06
1.48194e-06
1.48142e-06
1.48102e-06
1.48089e-06
1.48106e-06
1.48148e-06
1.482e-06
1.48232e-06
1.48237e-06
1.48206e-06
1.48157e-06
1.48119e-06
1.48106e-06
1.48122e-06
1.48163e-06
1.48212e-06
1.48238e-06
1.48246e-06
1.48233e-06
1.48194e-06
1.4816e-06
1.48148e-06
1.48163e-06
1.48199e-06
1.48237e-06
1.48245e-06
1.48253e-06
1.48233e-06
1.48209e-06
1.482e-06
1.48212e-06
1.48237e-06
1.48253e-06
1.48244e-06
1.48237e-06
1.48232e-06
1.48238e-06
1.48245e-06
1.45999e-06
1.45962e-06
1.45946e-06
1.45804e-06
1.45795e-06
1.45795e-06
1.45796e-06
1.4594e-06
1.45951e-06
1.45945e-06
1.45759e-06
1.45517e-06
1.45517e-06
1.45517e-06
1.45517e-06
1.45764e-06
1.45815e-06
1.45804e-06
1.45517e-06
1.45512e-06
1.45516e-06
1.45516e-06
1.45512e-06
1.45517e-06
1.45806e-06
1.45966e-06
1.45998e-06
1.45795e-06
1.45517e-06
1.45516e-06
1.45521e-06
1.45521e-06
1.45516e-06
1.45517e-06
1.458e-06
1.45939e-06
1.45962e-06
1.45795e-06
1.45517e-06
1.45516e-06
1.45521e-06
1.45521e-06
1.45516e-06
1.45517e-06
1.45796e-06
1.45826e-06
1.45796e-06
1.45517e-06
1.45512e-06
1.45516e-06
1.45516e-06
1.45512e-06
1.45517e-06
1.45803e-06
1.45954e-06
1.4594e-06
1.45764e-06
1.45517e-06
1.45517e-06
1.45517e-06
1.45517e-06
1.45761e-06
1.45816e-06
1.45968e-06
1.45952e-06
1.45814e-06
1.45806e-06
1.458e-06
1.45796e-06
1.45803e-06
1.45816e-06
1.45936e-06
1.45966e-06
1.45939e-06
1.45826e-06
1.45955e-06
1.45968e-06
1.44441e-06
1.44428e-06
1.44419e-06
1.44266e-06
1.44258e-06
1.44255e-06
1.44263e-06
1.4441e-06
1.44429e-06
1.44419e-06
1.44221e-06
1.43963e-06
1.43963e-06
1.43963e-06
1.43963e-06
1.44226e-06
1.44285e-06
1.44266e-06
1.43963e-06
1.43961e-06
1.43961e-06
1.43961e-06
1.43961e-06
1.43963e-06
1.44274e-06
1.44436e-06
1.44441e-06
1.44258e-06
1.43963e-06
1.43961e-06
1.43962e-06
1.43962e-06
1.43961e-06
1.43963e-06
1.44267e-06
1.4441e-06
1.44428e-06
1.44255e-06
1.43963e-06
1.43961e-06
1.43962e-06
1.43962e-06
1.43961e-06
1.43963e-06
1.44264e-06
1.44295e-06
1.44263e-06
1.43963e-06
1.43961e-06
1.43961e-06
1.43961e-06
1.43961e-06
1.43963e-06
1.44271e-06
1.44427e-06
1.4441e-06
1.44226e-06
1.43963e-06
1.43963e-06
1.43963e-06
1.43963e-06
1.44228e-06
1.44282e-06
1.44438e-06
1.44429e-06
1.44285e-06
1.44274e-06
1.44267e-06
1.44264e-06
1.44271e-06
1.44282e-06
1.44414e-06
1.44436e-06
1.4441e-06
1.44295e-06
1.44428e-06
1.44438e-06
1.42892e-06
1.4288e-06
1.4287e-06
1.42716e-06
1.42707e-06
1.42703e-06
1.42712e-06
1.42861e-06
1.4288e-06
1.4287e-06
1.42669e-06
1.42411e-06
1.42411e-06
1.42411e-06
1.42411e-06
1.42674e-06
1.42736e-06
1.42716e-06
1.42411e-06
1.4241e-06
1.4241e-06
1.4241e-06
1.4241e-06
1.42411e-06
1.42725e-06
1.42887e-06
1.42892e-06
1.42707e-06
1.42411e-06
1.4241e-06
1.4241e-06
1.4241e-06
1.4241e-06
1.42411e-06
1.42719e-06
1.42862e-06
1.4288e-06
1.42703e-06
1.42411e-06
1.4241e-06
1.4241e-06
1.4241e-06
1.4241e-06
1.42411e-06
1.42716e-06
1.42747e-06
1.42712e-06
1.42411e-06
1.4241e-06
1.4241e-06
1.4241e-06
1.4241e-06
1.42411e-06
1.42722e-06
1.42879e-06
1.42861e-06
1.42674e-06
1.42411e-06
1.42411e-06
1.42411e-06
1.42411e-06
1.42681e-06
1.42733e-06
1.42889e-06
1.4288e-06
1.42736e-06
1.42725e-06
1.42719e-06
1.42716e-06
1.42722e-06
1.42733e-06
1.42866e-06
1.42887e-06
1.42862e-06
1.42747e-06
1.42879e-06
1.42889e-06
1.41341e-06
1.41329e-06
1.41318e-06
1.41164e-06
1.41155e-06
1.41151e-06
1.41161e-06
1.41309e-06
1.41328e-06
1.41318e-06
1.41117e-06
1.40859e-06
1.40859e-06
1.40859e-06
1.40859e-06
1.41123e-06
1.41184e-06
1.41164e-06
1.40859e-06
1.40859e-06
1.40859e-06
1.40859e-06
1.40859e-06
1.40859e-06
1.41174e-06
1.41336e-06
1.41342e-06
1.41155e-06
1.40859e-06
1.40859e-06
1.40859e-06
1.40859e-06
1.40859e-06
1.40859e-06
1.41168e-06
1.41312e-06
1.41329e-06
1.41151e-06
1.40859e-06
1.40859e-06
1.40859e-06
1.40859e-06
1.40859e-06
1.40859e-06
1.41165e-06
1.41196e-06
1.41161e-06
1.40859e-06
1.40859e-06
1.40859e-06
1.40859e-06
1.40859e-06
1.40859e-06
1.41171e-06
1.41329e-06
1.41309e-06
1.41123e-06
1.40859e-06
1.40859e-06
1.40859e-06
1.40859e-06
1.4113e-06
1.41182e-06
1.41338e-06
1.41328e-06
1.41184e-06
1.41174e-06
1.41168e-06
1.41165e-06
1.41171e-06
1.41182e-06
1.41315e-06
1.41336e-06
1.41312e-06
1.41196e-06
1.41329e-06
1.41338e-06
1.3979e-06
1.39778e-06
1.39767e-06
1.39613e-06
1.39604e-06
1.396e-06
1.39609e-06
1.39758e-06
1.39777e-06
1.39767e-06
1.39566e-06
1.39307e-06
1.39307e-06
1.39307e-06
1.39307e-06
1.39571e-06
1.39633e-06
1.39613e-06
1.39307e-06
1.39307e-06
1.39307e-06
1.39307e-06
1.39307e-06
1.39307e-06
1.39622e-06
1.39785e-06
1.3979e-06
1.39604e-06
1.39307e-06
1.39307e-06
1.39307e-06
1.39307e-06
1.39307e-06
1.39307e-06
1.39617e-06
1.3976e-06
1.39778e-06
1.396e-06
1.39307e-06
1.39307e-06
1.39307e-06
1.39307e-06
1.39307e-06
1.39307e-06
1.39614e-06
1.39645e-06
1.39609e-06
1.39307e-06
1.39307e-06
1.39307e-06
1.39307e-06
1.39307e-06
1.39307e-06
1.3962e-06
1.39777e-06
1.39758e-06
1.39571e-06
1.39307e-06
1.39307e-06
1.39307e-06
1.39307e-06
1.39579e-06
1.39631e-06
1.39787e-06
1.39777e-06
1.39633e-06
1.39622e-06
1.39617e-06
1.39614e-06
1.3962e-06
1.39631e-06
1.39764e-06
1.39785e-06
1.3976e-06
1.39645e-06
1.39777e-06
1.39787e-06
1.38239e-06
1.38226e-06
1.38216e-06
1.38062e-06
1.38053e-06
1.38048e-06
1.38058e-06
1.38207e-06
1.38226e-06
1.38216e-06
1.38015e-06
1.37756e-06
1.37756e-06
1.37756e-06
1.37756e-06
1.3802e-06
1.38082e-06
1.38062e-06
1.37756e-06
1.37756e-06
1.37756e-06
1.37756e-06
1.37756e-06
1.37756e-06
1.38071e-06
1.38233e-06
1.38239e-06
1.38053e-06
1.37756e-06
1.37756e-06
1.37756e-06
1.37756e-06
1.37756e-06
1.37756e-06
1.38066e-06
1.38209e-06
1.38228e-06
1.38048e-06
1.37756e-06
1.37756e-06
1.37756e-06
1.37756e-06
1.37756e-06
1.37756e-06
1.38063e-06
1.38094e-06
1.38058e-06
1.37756e-06
1.37756e-06
1.37756e-06
1.37756e-06
1.37756e-06
1.37756e-06
1.38069e-06
1.38226e-06
1.38207e-06
1.3802e-06
1.37756e-06
1.37756e-06
1.37756e-06
1.37756e-06
1.38027e-06
1.3808e-06
1.38236e-06
1.38226e-06
1.38082e-06
1.38071e-06
1.38066e-06
1.38063e-06
1.38069e-06
1.3808e-06
1.38213e-06
1.38233e-06
1.38209e-06
1.38094e-06
1.38226e-06
1.38236e-06
1.36688e-06
1.36675e-06
1.36665e-06
1.3651e-06
1.36501e-06
1.36497e-06
1.36507e-06
1.36656e-06
1.36675e-06
1.36665e-06
1.36463e-06
1.36205e-06
1.36205e-06
1.36205e-06
1.36205e-06
1.36469e-06
1.36531e-06
1.3651e-06
1.36205e-06
1.36205e-06
1.36205e-06
1.36205e-06
1.36205e-06
1.36205e-06
1.3652e-06
1.36682e-06
1.36688e-06
1.36501e-06
1.36205e-06
1.36205e-06
1.36205e-06
1.36205e-06
1.36205e-06
1.36205e-06
1.36515e-06
1.36658e-06
1.36675e-06
1.36497e-06
1.36205e-06
1.36205e-06
1.36205e-06
1.36205e-06
1.36205e-06
1.36205e-06
1.36512e-06
1.36542e-06
1.36507e-06
1.36205e-06
1.36205e-06
1.36205e-06
1.36205e-06
1.36205e-06
1.36205e-06
1.36518e-06
1.36675e-06
1.36656e-06
1.36469e-06
1.36205e-06
1.36205e-06
1.36205e-06
1.36205e-06
1.36476e-06
1.36529e-06
1.36685e-06
1.36675e-06
1.36531e-06
1.3652e-06
1.36515e-06
1.36512e-06
1.36518e-06
1.36529e-06
1.36662e-06
1.36682e-06
1.36658e-06
1.36542e-06
1.36675e-06
1.36685e-06
1.35136e-06
1.35124e-06
1.35113e-06
1.34959e-06
1.3495e-06
1.34946e-06
1.34956e-06
1.35104e-06
1.35123e-06
1.35113e-06
1.34912e-06
1.34653e-06
1.34653e-06
1.34653e-06
1.34653e-06
1.34917e-06
1.34979e-06
1.34959e-06
1.34653e-06
1.34653e-06
1.34653e-06
1.34653e-06
1.34653e-06
1.34653e-06
1.34969e-06
1.35131e-06
1.35136e-06
1.3495e-06
1.34653e-06
1.34653e-06
1.34653e-06
1.34653e-06
1.34653e-06
1.34653e-06
1.34963e-06
1.35107e-06
1.35124e-06
1.34946e-06
1.34653e-06
1.34653e-06
1.34653e-06
1.34653e-06
1.34653e-06
1.34653e-06
1.3496e-06
1.34991e-06
1.34956e-06
1.34653e-06
1.34653e-06
1.34653e-06
1.34653e-06
1.34653e-06
1.34653e-06
1.34966e-06
1.35124e-06
1.35104e-06
1.34917e-06
1.34653e-06
1.34653e-06
1.34653e-06
1.34653e-06
1.34925e-06
1.34977e-06
1.35133e-06
1.35123e-06
1.34979e-06
1.34969e-06
1.34963e-06
1.3496e-06
1.34966e-06
1.34977e-06
1.3511e-06
1.35131e-06
1.35107e-06
1.34991e-06
1.35124e-06
1.35133e-06
1.33585e-06
1.33573e-06
1.33562e-06
1.33408e-06
1.33399e-06
1.33394e-06
1.33404e-06
1.33553e-06
1.33572e-06
1.33562e-06
1.33361e-06
1.33102e-06
1.33102e-06
1.33102e-06
1.33102e-06
1.33366e-06
1.33428e-06
1.33408e-06
1.33102e-06
1.33102e-06
1.33102e-06
1.33102e-06
1.33102e-06
1.33102e-06
1.33417e-06
1.33579e-06
1.33585e-06
1.33399e-06
1.33102e-06
1.33102e-06
1.33102e-06
1.33102e-06
1.33102e-06
1.33102e-06
1.33412e-06
1.33555e-06
1.33573e-06
1.33395e-06
1.33102e-06
1.33102e-06
1.33102e-06
1.33102e-06
1.33102e-06
1.33102e-06
1.33409e-06
1.3344e-06
1.33404e-06
1.33102e-06
1.33102e-06
1.33102e-06
1.33102e-06
1.33102e-06
1.33102e-06
1.33415e-06
1.33572e-06
1.33553e-06
1.33366e-06
1.33102e-06
1.33102e-06
1.33102e-06
1.33102e-06
1.33374e-06
1.33426e-06
1.33582e-06
1.33572e-06
1.33428e-06
1.33417e-06
1.33412e-06
1.33409e-06
1.33415e-06
1.33426e-06
1.33559e-06
1.3358e-06
1.33555e-06
1.3344e-06
1.33572e-06
1.33582e-06
1.32034e-06
1.32021e-06
1.32011e-06
1.31857e-06
1.31847e-06
1.31843e-06
1.31853e-06
1.32002e-06
1.32021e-06
1.32011e-06
1.3181e-06
1.31551e-06
1.31551e-06
1.31551e-06
1.31551e-06
1.31815e-06
1.31877e-06
1.31856e-06
1.31551e-06
1.31551e-06
1.31551e-06
1.31551e-06
1.31551e-06
1.31551e-06
1.31866e-06
1.32028e-06
1.32034e-06
1.31847e-06
1.31551e-06
1.31551e-06
1.31551e-06
1.31551e-06
1.31551e-06
1.31551e-06
1.31861e-06
1.32004e-06
1.32021e-06
1.31843e-06
1.31551e-06
1.31551e-06
1.31551e-06
1.31551e-06
1.31551e-06
1.31551e-06
1.31858e-06
1.31888e-06
1.31853e-06
1.31551e-06
1.31551e-06
1.31551e-06
1.31551e-06
1.31551e-06
1.31551e-06
1.31864e-06
1.32021e-06
1.32002e-06
1.31815e-06
1.31551e-06
1.31551e-06
1.31551e-06
1.31551e-06
1.31822e-06
1.31875e-06
1.32031e-06
1.32021e-06
1.31877e-06
1.31866e-06
1.31861e-06
1.31858e-06
1.31864e-06
1.31875e-06
1.32008e-06
1.32028e-06
1.32004e-06
1.31888e-06
1.32021e-06
1.32031e-06
1.30483e-06
1.3047e-06
1.30459e-06
1.30305e-06
1.30296e-06
1.30292e-06
1.30302e-06
1.3045e-06
1.30469e-06
1.30459e-06
1.30258e-06
1.3e-06
1.3e-06
1.3e-06
1.3e-06
1.30263e-06
1.30325e-06
1.30305e-06
1.3e-06
1.3e-06
1.3e-06
1.3e-06
1.3e-06
1.3e-06
1.30315e-06
1.30477e-06
1.30483e-06
1.30296e-06
1.3e-06
1.3e-06
1.3e-06
1.3e-06
1.3e-06
1.3e-06
1.30309e-06
1.30453e-06
1.3047e-06
1.30292e-06
1.3e-06
1.3e-06
1.3e-06
1.3e-06
1.3e-06
1.3e-06
1.30306e-06
1.30337e-06
1.30302e-06
1.3e-06
1.3e-06
1.3e-06
1.3e-06
1.3e-06
1.3e-06
1.30312e-06
1.3047e-06
1.3045e-06
1.30263e-06
1.3e-06
1.3e-06
1.3e-06
1.3e-06
1.30271e-06
1.30323e-06
1.30479e-06
1.30469e-06
1.30325e-06
1.30315e-06
1.30309e-06
1.30306e-06
1.30312e-06
1.30324e-06
1.30456e-06
1.30477e-06
1.30453e-06
1.30337e-06
1.3047e-06
1.30479e-06
1.28931e-06
1.28919e-06
1.28908e-06
1.28754e-06
1.28745e-06
1.28741e-06
1.2875e-06
1.28899e-06
1.28918e-06
1.28908e-06
1.28707e-06
1.28448e-06
1.28448e-06
1.28448e-06
1.28448e-06
1.28712e-06
1.28774e-06
1.28754e-06
1.28448e-06
1.28448e-06
1.28448e-06
1.28448e-06
1.28448e-06
1.28448e-06
1.28763e-06
1.28926e-06
1.28931e-06
1.28745e-06
1.28448e-06
1.28448e-06
1.28448e-06
1.28448e-06
1.28448e-06
1.28448e-06
1.28758e-06
1.28901e-06
1.28919e-06
1.28741e-06
1.28448e-06
1.28448e-06
1.28448e-06
1.28448e-06
1.28448e-06
1.28448e-06
1.28755e-06
1.28786e-06
1.2875e-06
1.28448e-06
1.28448e-06
1.28448e-06
1.28448e-06
1.28448e-06
1.28448e-06
1.28761e-06
1.28918e-06
1.28899e-06
1.28712e-06
1.28448e-06
1.28448e-06
1.28448e-06
1.28448e-06
1.2872e-06
1.28772e-06
1.28928e-06
1.28918e-06
1.28774e-06
1.28763e-06
1.28758e-06
1.28755e-06
1.28761e-06
1.28772e-06
1.28905e-06
1.28926e-06
1.28901e-06
1.28786e-06
1.28918e-06
1.28928e-06
1.2738e-06
1.27367e-06
1.27357e-06
1.27203e-06
1.27194e-06
1.27189e-06
1.27199e-06
1.27348e-06
1.27367e-06
1.27357e-06
1.27156e-06
1.26897e-06
1.26897e-06
1.26897e-06
1.26897e-06
1.27161e-06
1.27223e-06
1.27203e-06
1.26897e-06
1.26897e-06
1.26897e-06
1.26897e-06
1.26897e-06
1.26897e-06
1.27212e-06
1.27374e-06
1.2738e-06
1.27194e-06
1.26897e-06
1.26897e-06
1.26897e-06
1.26897e-06
1.26897e-06
1.26897e-06
1.27207e-06
1.2735e-06
1.27368e-06
1.27189e-06
1.26897e-06
1.26897e-06
1.26897e-06
1.26897e-06
1.26897e-06
1.26897e-06
1.27204e-06
1.27235e-06
1.27199e-06
1.26897e-06
1.26897e-06
1.26897e-06
1.26897e-06
1.26897e-06
1.26897e-06
1.2721e-06
1.27367e-06
1.27348e-06
1.27161e-06
1.26897e-06
1.26897e-06
1.26897e-06
1.26897e-06
1.27169e-06
1.27221e-06
1.27377e-06
1.27367e-06
1.27223e-06
1.27212e-06
1.27207e-06
1.27204e-06
1.2721e-06
1.27221e-06
1.27354e-06
1.27374e-06
1.2735e-06
1.27235e-06
1.27367e-06
1.27377e-06
1.25829e-06
1.25816e-06
1.25806e-06
1.25651e-06
1.25642e-06
1.25638e-06
1.25648e-06
1.25797e-06
1.25816e-06
1.25806e-06
1.25604e-06
1.25346e-06
1.25346e-06
1.25346e-06
1.25346e-06
1.2561e-06
1.25672e-06
1.25651e-06
1.25346e-06
1.25346e-06
1.25346e-06
1.25346e-06
1.25346e-06
1.25346e-06
1.25661e-06
1.25823e-06
1.25829e-06
1.25642e-06
1.25346e-06
1.25346e-06
1.25346e-06
1.25346e-06
1.25346e-06
1.25346e-06
1.25656e-06
1.25799e-06
1.25816e-06
1.25638e-06
1.25346e-06
1.25346e-06
1.25346e-06
1.25346e-06
1.25346e-06
1.25346e-06
1.25653e-06
1.25683e-06
1.25648e-06
1.25346e-06
1.25346e-06
1.25346e-06
1.25346e-06
1.25346e-06
1.25346e-06
1.25659e-06
1.25816e-06
1.25797e-06
1.2561e-06
1.25346e-06
1.25346e-06
1.25346e-06
1.25346e-06
1.25617e-06
1.2567e-06
1.25826e-06
1.25816e-06
1.25672e-06
1.25661e-06
1.25656e-06
1.25653e-06
1.25659e-06
1.2567e-06
1.25803e-06
1.25823e-06
1.25799e-06
1.25683e-06
1.25816e-06
1.25826e-06
1.24277e-06
1.24265e-06
1.24254e-06
1.241e-06
1.24091e-06
1.24087e-06
1.24097e-06
1.24245e-06
1.24264e-06
1.24254e-06
1.24053e-06
1.23794e-06
1.23794e-06
1.23794e-06
1.23794e-06
1.24058e-06
1.2412e-06
1.241e-06
1.23794e-06
1.23794e-06
1.23794e-06
1.23794e-06
1.23794e-06
1.23794e-06
1.2411e-06
1.24272e-06
1.24277e-06
1.24091e-06
1.23794e-06
1.23794e-06
1.23794e-06
1.23794e-06
1.23794e-06
1.23794e-06
1.24104e-06
1.24248e-06
1.24265e-06
1.24087e-06
1.23794e-06
1.23794e-06
1.23794e-06
1.23794e-06
1.23794e-06
1.23794e-06
1.24101e-06
1.24132e-06
1.24097e-06
1.23794e-06
1.23794e-06
1.23794e-06
1.23794e-06
1.23794e-06
1.23794e-06
1.24107e-06
1.24265e-06
1.24245e-06
1.24058e-06
1.23794e-06
1.23794e-06
1.23794e-06
1.23794e-06
1.24066e-06
1.24118e-06
1.24274e-06
1.24264e-06
1.2412e-06
1.2411e-06
1.24104e-06
1.24101e-06
1.24107e-06
1.24118e-06
1.24251e-06
1.24272e-06
1.24248e-06
1.24132e-06
1.24265e-06
1.24274e-06
1.22726e-06
1.22714e-06
1.22703e-06
1.22549e-06
1.2254e-06
1.22536e-06
1.22545e-06
1.22694e-06
1.22713e-06
1.22703e-06
1.22502e-06
1.22243e-06
1.22243e-06
1.22243e-06
1.22243e-06
1.22507e-06
1.22569e-06
1.22549e-06
1.22243e-06
1.22243e-06
1.22243e-06
1.22243e-06
1.22243e-06
1.22243e-06
1.22558e-06
1.2272e-06
1.22726e-06
1.2254e-06
1.22243e-06
1.22243e-06
1.22243e-06
1.22243e-06
1.22243e-06
1.22243e-06
1.22553e-06
1.22696e-06
1.22714e-06
1.22535e-06
1.22243e-06
1.22243e-06
1.22243e-06
1.22243e-06
1.22243e-06
1.22243e-06
1.2255e-06
1.22581e-06
1.22545e-06
1.22243e-06
1.22243e-06
1.22243e-06
1.22243e-06
1.22243e-06
1.22243e-06
1.22556e-06
1.22713e-06
1.22694e-06
1.22507e-06
1.22243e-06
1.22243e-06
1.22243e-06
1.22243e-06
1.22515e-06
1.22567e-06
1.22723e-06
1.22713e-06
1.22569e-06
1.22558e-06
1.22553e-06
1.2255e-06
1.22556e-06
1.22567e-06
1.227e-06
1.22721e-06
1.22696e-06
1.22581e-06
1.22713e-06
1.22723e-06
1.21175e-06
1.21162e-06
1.21152e-06
1.20998e-06
1.20988e-06
1.20984e-06
1.20994e-06
1.21143e-06
1.21162e-06
1.21152e-06
1.20951e-06
1.20692e-06
1.20692e-06
1.20692e-06
1.20692e-06
1.20956e-06
1.21018e-06
1.20998e-06
1.20692e-06
1.20692e-06
1.20692e-06
1.20692e-06
1.20692e-06
1.20692e-06
1.21007e-06
1.21169e-06
1.21175e-06
1.20988e-06
1.20692e-06
1.20692e-06
1.20692e-06
1.20692e-06
1.20692e-06
1.20692e-06
1.21002e-06
1.21145e-06
1.21162e-06
1.20984e-06
1.20692e-06
1.20692e-06
1.20692e-06
1.20692e-06
1.20692e-06
1.20692e-06
1.20999e-06
1.21029e-06
1.20994e-06
1.20692e-06
1.20692e-06
1.20692e-06
1.20692e-06
1.20692e-06
1.20692e-06
1.21005e-06
1.21162e-06
1.21143e-06
1.20956e-06
1.20692e-06
1.20692e-06
1.20692e-06
1.20692e-06
1.20963e-06
1.21016e-06
1.21172e-06
1.21162e-06
1.21018e-06
1.21007e-06
1.21002e-06
1.20999e-06
1.21005e-06
1.21016e-06
1.21149e-06
1.21169e-06
1.21145e-06
1.21029e-06
1.21162e-06
1.21172e-06
1.19624e-06
1.19611e-06
1.196e-06
1.19446e-06
1.19437e-06
1.19433e-06
1.19443e-06
1.19591e-06
1.1961e-06
1.196e-06
1.19399e-06
1.19141e-06
1.19141e-06
1.19141e-06
1.19141e-06
1.19404e-06
1.19466e-06
1.19446e-06
1.19141e-06
1.19141e-06
1.19141e-06
1.19141e-06
1.19141e-06
1.19141e-06
1.19456e-06
1.19618e-06
1.19624e-06
1.19437e-06
1.19141e-06
1.19141e-06
1.19141e-06
1.19141e-06
1.19141e-06
1.19141e-06
1.1945e-06
1.19594e-06
1.19611e-06
1.19433e-06
1.19141e-06
1.19141e-06
1.19141e-06
1.19141e-06
1.19141e-06
1.19141e-06
1.19447e-06
1.19478e-06
1.19443e-06
1.19141e-06
1.19141e-06
1.19141e-06
1.19141e-06
1.19141e-06
1.19141e-06
1.19453e-06
1.19611e-06
1.19591e-06
1.19404e-06
1.19141e-06
1.19141e-06
1.19141e-06
1.19141e-06
1.19412e-06
1.19464e-06
1.1962e-06
1.19611e-06
1.19467e-06
1.19456e-06
1.19451e-06
1.19447e-06
1.19453e-06
1.19464e-06
1.19597e-06
1.19618e-06
1.19594e-06
1.19478e-06
1.19611e-06
1.1962e-06
1.18072e-06
1.1806e-06
1.18049e-06
1.17895e-06
1.17886e-06
1.17882e-06
1.17891e-06
1.1804e-06
1.18059e-06
1.18049e-06
1.17848e-06
1.17589e-06
1.17589e-06
1.17589e-06
1.17589e-06
1.17853e-06
1.17915e-06
1.17895e-06
1.17589e-06
1.17589e-06
1.17589e-06
1.17589e-06
1.17589e-06
1.17589e-06
1.17904e-06
1.18067e-06
1.18072e-06
1.17886e-06
1.17589e-06
1.17589e-06
1.17589e-06
1.17589e-06
1.17589e-06
1.17589e-06
1.17899e-06
1.18042e-06
1.1806e-06
1.17882e-06
1.17589e-06
1.17589e-06
1.17589e-06
1.17589e-06
1.17589e-06
1.17589e-06
1.17896e-06
1.17927e-06
1.17891e-06
1.17589e-06
1.17589e-06
1.17589e-06
1.17589e-06
1.17589e-06
1.17589e-06
1.17902e-06
1.18059e-06
1.1804e-06
1.17853e-06
1.17589e-06
1.17589e-06
1.17589e-06
1.17589e-06
1.17861e-06
1.17913e-06
1.18069e-06
1.18059e-06
1.17915e-06
1.17904e-06
1.17899e-06
1.17896e-06
1.17902e-06
1.17913e-06
1.18046e-06
1.18067e-06
1.18042e-06
1.17927e-06
1.18059e-06
1.18069e-06
1.16521e-06
1.16508e-06
1.16498e-06
1.16344e-06
1.16335e-06
1.1633e-06
1.1634e-06
1.16489e-06
1.16508e-06
1.16498e-06
1.16297e-06
1.16038e-06
1.16038e-06
1.16038e-06
1.16038e-06
1.16302e-06
1.16364e-06
1.16344e-06
1.16038e-06
1.16038e-06
1.16038e-06
1.16038e-06
1.16038e-06
1.16038e-06
1.16353e-06
1.16515e-06
1.16521e-06
1.16335e-06
1.16038e-06
1.16038e-06
1.16038e-06
1.16038e-06
1.16038e-06
1.16038e-06
1.16348e-06
1.16491e-06
1.16508e-06
1.1633e-06
1.16038e-06
1.16038e-06
1.16038e-06
1.16038e-06
1.16038e-06
1.16038e-06
1.16345e-06
1.16376e-06
1.1634e-06
1.16038e-06
1.16038e-06
1.16038e-06
1.16038e-06
1.16038e-06
1.16038e-06
1.16351e-06
1.16508e-06
1.16489e-06
1.16302e-06
1.16038e-06
1.16038e-06
1.16038e-06
1.16038e-06
1.1631e-06
1.16362e-06
1.16518e-06
1.16508e-06
1.16364e-06
1.16353e-06
1.16348e-06
1.16345e-06
1.16351e-06
1.16362e-06
1.16495e-06
1.16515e-06
1.16491e-06
1.16376e-06
1.16508e-06
1.16518e-06
1.1497e-06
1.14957e-06
1.14947e-06
1.14792e-06
1.14783e-06
1.14779e-06
1.14789e-06
1.14938e-06
1.14957e-06
1.14947e-06
1.14745e-06
1.14487e-06
1.14487e-06
1.14487e-06
1.14487e-06
1.14751e-06
1.14813e-06
1.14792e-06
1.14487e-06
1.14487e-06
1.14487e-06
1.14487e-06
1.14487e-06
1.14487e-06
1.14802e-06
1.14964e-06
1.1497e-06
1.14783e-06
1.14487e-06
1.14487e-06
1.14487e-06
1.14487e-06
1.14487e-06
1.14487e-06
1.14797e-06
1.1494e-06
1.14957e-06
1.14779e-06
1.14487e-06
1.14487e-06
1.14487e-06
1.14487e-06
1.14487e-06
1.14487e-06
1.14794e-06
1.14824e-06
1.14789e-06
1.14487e-06
1.14487e-06
1.14487e-06
1.14487e-06
1.14487e-06
1.14487e-06
1.148e-06
1.14957e-06
1.14938e-06
1.14751e-06
1.14487e-06
1.14487e-06
1.14487e-06
1.14487e-06
1.14758e-06
1.14811e-06
1.14967e-06
1.14957e-06
1.14813e-06
1.14802e-06
1.14797e-06
1.14794e-06
1.148e-06
1.14811e-06
1.14944e-06
1.14964e-06
1.1494e-06
1.14824e-06
1.14957e-06
1.14967e-06
1.13418e-06
1.13406e-06
1.13395e-06
1.13241e-06
1.13232e-06
1.13228e-06
1.13238e-06
1.13386e-06
1.13405e-06
1.13395e-06
1.13194e-06
1.12935e-06
1.12935e-06
1.12935e-06
1.12935e-06
1.13199e-06
1.13261e-06
1.13241e-06
1.12935e-06
1.12935e-06
1.12935e-06
1.12935e-06
1.12935e-06
1.12935e-06
1.13251e-06
1.13413e-06
1.13418e-06
1.13232e-06
1.12935e-06
1.12935e-06
1.12935e-06
1.12935e-06
1.12935e-06
1.12935e-06
1.13245e-06
1.13389e-06
1.13406e-06
1.13228e-06
1.12935e-06
1.12935e-06
1.12935e-06
1.12935e-06
1.12935e-06
1.12935e-06
1.13242e-06
1.13273e-06
1.13238e-06
1.12935e-06
1.12935e-06
1.12935e-06
1.12935e-06
1.12935e-06
1.12935e-06
1.13248e-06
1.13406e-06
1.13386e-06
1.13199e-06
1.12935e-06
1.12935e-06
1.12935e-06
1.12935e-06
1.13207e-06
1.13259e-06
1.13415e-06
1.13405e-06
1.13261e-06
1.13251e-06
1.13245e-06
1.13242e-06
1.13248e-06
1.13259e-06
1.13392e-06
1.13413e-06
1.13389e-06
1.13273e-06
1.13406e-06
1.13415e-06
1.11867e-06
1.11855e-06
1.11844e-06
1.1169e-06
1.11681e-06
1.11677e-06
1.11686e-06
1.11835e-06
1.11854e-06
1.11844e-06
1.11643e-06
1.11384e-06
1.11384e-06
1.11384e-06
1.11384e-06
1.11648e-06
1.1171e-06
1.1169e-06
1.11384e-06
1.11384e-06
1.11384e-06
1.11384e-06
1.11384e-06
1.11384e-06
1.11699e-06
1.11861e-06
1.11867e-06
1.11681e-06
1.11384e-06
1.11384e-06
1.11384e-06
1.11384e-06
1.11384e-06
1.11384e-06
1.11694e-06
1.11837e-06
1.11855e-06
1.11677e-06
1.11384e-06
1.11384e-06
1.11384e-06
1.11384e-06
1.11384e-06
1.11384e-06
1.11691e-06
1.11722e-06
1.11686e-06
1.11384e-06
1.11384e-06
1.11384e-06
1.11384e-06
1.11384e-06
1.11384e-06
1.11697e-06
1.11854e-06
1.11835e-06
1.11648e-06
1.11384e-06
1.11384e-06
1.11384e-06
1.11384e-06
1.11656e-06
1.11708e-06
1.11864e-06
1.11854e-06
1.1171e-06
1.11699e-06
1.11694e-06
1.11691e-06
1.11697e-06
1.11708e-06
1.11841e-06
1.11861e-06
1.11837e-06
1.11722e-06
1.11854e-06
1.11864e-06
1.10316e-06
1.10303e-06
1.10293e-06
1.10139e-06
1.10129e-06
1.10125e-06
1.10135e-06
1.10284e-06
1.10303e-06
1.10293e-06
1.10092e-06
1.09833e-06
1.09833e-06
1.09833e-06
1.09833e-06
1.10097e-06
1.10159e-06
1.10139e-06
1.09833e-06
1.09833e-06
1.09833e-06
1.09833e-06
1.09833e-06
1.09833e-06
1.10148e-06
1.1031e-06
1.10316e-06
1.10129e-06
1.09833e-06
1.09833e-06
1.09833e-06
1.09833e-06
1.09833e-06
1.09833e-06
1.10143e-06
1.10286e-06
1.10303e-06
1.10125e-06
1.09833e-06
1.09833e-06
1.09833e-06
1.09833e-06
1.09833e-06
1.09833e-06
1.1014e-06
1.1017e-06
1.10135e-06
1.09833e-06
1.09833e-06
1.09833e-06
1.09833e-06
1.09833e-06
1.09833e-06
1.10146e-06
1.10303e-06
1.10284e-06
1.10097e-06
1.09833e-06
1.09833e-06
1.09833e-06
1.09833e-06
1.10104e-06
1.10157e-06
1.10313e-06
1.10303e-06
1.10159e-06
1.10148e-06
1.10143e-06
1.1014e-06
1.10146e-06
1.10157e-06
1.1029e-06
1.1031e-06
1.10286e-06
1.10171e-06
1.10303e-06
1.10313e-06
1.08765e-06
1.08752e-06
1.08741e-06
1.08587e-06
1.08578e-06
1.08574e-06
1.08584e-06
1.08732e-06
1.08751e-06
1.08741e-06
1.0854e-06
1.08282e-06
1.08282e-06
1.08282e-06
1.08282e-06
1.08545e-06
1.08607e-06
1.08587e-06
1.08282e-06
1.08282e-06
1.08282e-06
1.08282e-06
1.08282e-06
1.08282e-06
1.08597e-06
1.08759e-06
1.08765e-06
1.08578e-06
1.08282e-06
1.08282e-06
1.08282e-06
1.08282e-06
1.08282e-06
1.08282e-06
1.08592e-06
1.08735e-06
1.08752e-06
1.08574e-06
1.08282e-06
1.08282e-06
1.08282e-06
1.08282e-06
1.08282e-06
1.08282e-06
1.08588e-06
1.08619e-06
1.08584e-06
1.08282e-06
1.08282e-06
1.08282e-06
1.08282e-06
1.08282e-06
1.08282e-06
1.08594e-06
1.08752e-06
1.08732e-06
1.08545e-06
1.08282e-06
1.08282e-06
1.08282e-06
1.08282e-06
1.08553e-06
1.08606e-06
1.08761e-06
1.08751e-06
1.08607e-06
1.08597e-06
1.08591e-06
1.08588e-06
1.08594e-06
1.08606e-06
1.08738e-06
1.08759e-06
1.08735e-06
1.08619e-06
1.08752e-06
1.08761e-06
1.07213e-06
1.07201e-06
1.0719e-06
1.07036e-06
1.07027e-06
1.07023e-06
1.07032e-06
1.07181e-06
1.072e-06
1.0719e-06
1.06989e-06
1.0673e-06
1.0673e-06
1.0673e-06
1.0673e-06
1.06994e-06
1.07056e-06
1.07036e-06
1.0673e-06
1.0673e-06
1.0673e-06
1.0673e-06
1.0673e-06
1.0673e-06
1.07045e-06
1.07208e-06
1.07213e-06
1.07027e-06
1.0673e-06
1.0673e-06
1.0673e-06
1.0673e-06
1.0673e-06
1.0673e-06
1.0704e-06
1.07183e-06
1.07201e-06
1.07023e-06
1.0673e-06
1.0673e-06
1.0673e-06
1.0673e-06
1.0673e-06
1.0673e-06
1.07037e-06
1.07068e-06
1.07032e-06
1.0673e-06
1.0673e-06
1.0673e-06
1.0673e-06
1.0673e-06
1.0673e-06
1.07043e-06
1.072e-06
1.07181e-06
1.06994e-06
1.0673e-06
1.0673e-06
1.0673e-06
1.0673e-06
1.07002e-06
1.07054e-06
1.0721e-06
1.072e-06
1.07056e-06
1.07045e-06
1.0704e-06
1.07037e-06
1.07043e-06
1.07054e-06
1.07187e-06
1.07208e-06
1.07183e-06
1.07068e-06
1.072e-06
1.0721e-06
1.05662e-06
1.05649e-06
1.05639e-06
1.05485e-06
1.05476e-06
1.05471e-06
1.05481e-06
1.0563e-06
1.05649e-06
1.05639e-06
1.05438e-06
1.05179e-06
1.05179e-06
1.05179e-06
1.05179e-06
1.05443e-06
1.05505e-06
1.05485e-06
1.05179e-06
1.05179e-06
1.05179e-06
1.05179e-06
1.05179e-06
1.05179e-06
1.05494e-06
1.05656e-06
1.05662e-06
1.05476e-06
1.05179e-06
1.05179e-06
1.05179e-06
1.05179e-06
1.05179e-06
1.05179e-06
1.05489e-06
1.05632e-06
1.05649e-06
1.05471e-06
1.05179e-06
1.05179e-06
1.05179e-06
1.05179e-06
1.05179e-06
1.05179e-06
1.05486e-06
1.05517e-06
1.05481e-06
1.05179e-06
1.05179e-06
1.05179e-06
1.05179e-06
1.05179e-06
1.05179e-06
1.05492e-06
1.05649e-06
1.0563e-06
1.05443e-06
1.05179e-06
1.05179e-06
1.05179e-06
1.05179e-06
1.05451e-06
1.05503e-06
1.05659e-06
1.05649e-06
1.05505e-06
1.05494e-06
1.05489e-06
1.05486e-06
1.05492e-06
1.05503e-06
1.05636e-06
1.05656e-06
1.05632e-06
1.05517e-06
1.05649e-06
1.05659e-06
1.04111e-06
1.04098e-06
1.04088e-06
1.03933e-06
1.03924e-06
1.0392e-06
1.0393e-06
1.04079e-06
1.04098e-06
1.04088e-06
1.03886e-06
1.03628e-06
1.03628e-06
1.03628e-06
1.03628e-06
1.03892e-06
1.03954e-06
1.03933e-06
1.03628e-06
1.03628e-06
1.03628e-06
1.03628e-06
1.03628e-06
1.03628e-06
1.03943e-06
1.04105e-06
1.0411e-06
1.03924e-06
1.03628e-06
1.03628e-06
1.03628e-06
1.03628e-06
1.03628e-06
1.03628e-06
1.03938e-06
1.04081e-06
1.04098e-06
1.0392e-06
1.03628e-06
1.03628e-06
1.03628e-06
1.03628e-06
1.03628e-06
1.03628e-06
1.03935e-06
1.03965e-06
1.0393e-06
1.03628e-06
1.03628e-06
1.03628e-06
1.03628e-06
1.03628e-06
1.03628e-06
1.03941e-06
1.04098e-06
1.04079e-06
1.03892e-06
1.03628e-06
1.03628e-06
1.03628e-06
1.03628e-06
1.03899e-06
1.03952e-06
1.04108e-06
1.04098e-06
1.03954e-06
1.03943e-06
1.03938e-06
1.03935e-06
1.03941e-06
1.03952e-06
1.04085e-06
1.04105e-06
1.04081e-06
1.03965e-06
1.04098e-06
1.04108e-06
1.02559e-06
1.02547e-06
1.02536e-06
1.02382e-06
1.02373e-06
1.02369e-06
1.02379e-06
1.02527e-06
1.02546e-06
1.02536e-06
1.02335e-06
1.02076e-06
1.02076e-06
1.02076e-06
1.02076e-06
1.0234e-06
1.02402e-06
1.02382e-06
1.02076e-06
1.02076e-06
1.02076e-06
1.02076e-06
1.02076e-06
1.02076e-06
1.02392e-06
1.02554e-06
1.02559e-06
1.02373e-06
1.02076e-06
1.02076e-06
1.02076e-06
1.02076e-06
1.02076e-06
1.02076e-06
1.02386e-06
1.0253e-06
1.02547e-06
1.02369e-06
1.02076e-06
1.02076e-06
1.02076e-06
1.02076e-06
1.02076e-06
1.02076e-06
1.02383e-06
1.02414e-06
1.02379e-06
1.02076e-06
1.02076e-06
1.02076e-06
1.02076e-06
1.02076e-06
1.02076e-06
1.02389e-06
1.02547e-06
1.02527e-06
1.0234e-06
1.02076e-06
1.02076e-06
1.02076e-06
1.02076e-06
1.02348e-06
1.024e-06
1.02556e-06
1.02546e-06
1.02402e-06
1.02392e-06
1.02386e-06
1.02383e-06
1.02389e-06
1.024e-06
1.02533e-06
1.02554e-06
1.0253e-06
1.02414e-06
1.02547e-06
1.02556e-06
1.01008e-06
1.00996e-06
1.00985e-06
1.00831e-06
1.00822e-06
1.00818e-06
1.00827e-06
1.00976e-06
1.00995e-06
1.00985e-06
1.00784e-06
1.00525e-06
1.00525e-06
1.00525e-06
1.00525e-06
1.00789e-06
1.00851e-06
1.00831e-06
1.00525e-06
1.00525e-06
1.00525e-06
1.00525e-06
1.00525e-06
1.00525e-06
1.0084e-06
1.01002e-06
1.01008e-06
1.00822e-06
1.00525e-06
1.00525e-06
1.00525e-06
1.00525e-06
1.00525e-06
1.00525e-06
1.00835e-06
1.00978e-06
1.00996e-06
1.00818e-06
1.00525e-06
1.00525e-06
1.00525e-06
1.00525e-06
1.00525e-06
1.00525e-06
1.00832e-06
1.00863e-06
1.00827e-06
1.00525e-06
1.00525e-06
1.00525e-06
1.00525e-06
1.00525e-06
1.00525e-06
1.00838e-06
1.00995e-06
1.00976e-06
1.00789e-06
1.00525e-06
1.00525e-06
1.00525e-06
1.00525e-06
1.00797e-06
1.00849e-06
1.01005e-06
1.00995e-06
1.00851e-06
1.0084e-06
1.00835e-06
1.00832e-06
1.00838e-06
1.00849e-06
1.00982e-06
1.01003e-06
1.00978e-06
1.00863e-06
1.00995e-06
1.01005e-06
9.94569e-07
9.94443e-07
9.94338e-07
9.92795e-07
9.92705e-07
9.92662e-07
9.92761e-07
9.94247e-07
9.94438e-07
9.94337e-07
9.92326e-07
9.89739e-07
9.89739e-07
9.89739e-07
9.89739e-07
9.92377e-07
9.92998e-07
9.92795e-07
9.89739e-07
9.89739e-07
9.89739e-07
9.89739e-07
9.89739e-07
9.89739e-07
9.9289e-07
9.94512e-07
9.94569e-07
9.92704e-07
9.89739e-07
9.89739e-07
9.89739e-07
9.89739e-07
9.89739e-07
9.89739e-07
9.92838e-07
9.94271e-07
9.94443e-07
9.92662e-07
9.89739e-07
9.89739e-07
9.89739e-07
9.89739e-07
9.89739e-07
9.89739e-07
9.92807e-07
9.93115e-07
9.92761e-07
9.89739e-07
9.89739e-07
9.89739e-07
9.89739e-07
9.89739e-07
9.89739e-07
9.92868e-07
9.94441e-07
9.94247e-07
9.92377e-07
9.89739e-07
9.89739e-07
9.89739e-07
9.89739e-07
9.92454e-07
9.92978e-07
9.94538e-07
9.94438e-07
9.92998e-07
9.9289e-07
9.92838e-07
9.92807e-07
9.92868e-07
9.92978e-07
9.94307e-07