/*--------------------------------*- C++ -*----------------------------------*\
| =========                 |                                                 |
| \\      /  F ield         | OpenFOAM: The Open Source CFD Toolbox           |
|  \\    /   O peration     | Version:  v2012                                 |
|   \\  /    A nd           | Website:  www.openfoam.com                      |
|    \\/     M anipulation  |                                                 |
\*---------------------------------------------------------------------------*/
FoamFile
{
    version     2.0;
    format      ascii;
    class       volScalarField;
    location    "17";
    object      p;
}
// * * * * * * * * * * * * * * * * * * * * * * * * * * * * * * * * * * * * * //

dimensions      [0 2 -2 0 0 0 0];


internalField   nonuniform List<scalar> 
244288
(
1.44367e-06
1.44375e-06
1.44372e-06
1.44364e-06
1.4436e-06
1.44366e-06
1.44373e-06
1.44375e-06
1.44378e-06
1.44356e-06
1.44332e-06
1.44323e-06
1.44335e-06
1.4436e-06
1.44379e-06
1.44372e-06
1.44356e-06
1.44317e-06
1.44284e-06
1.44272e-06
1.44287e-06
1.44322e-06
1.44361e-06
1.44371e-06
1.44364e-06
1.44332e-06
1.44284e-06
1.44246e-06
1.44234e-06
1.4425e-06
1.44289e-06
1.44338e-06
1.44366e-06
1.44367e-06
1.4436e-06
1.44323e-06
1.44272e-06
1.44234e-06
1.44221e-06
1.44237e-06
1.44278e-06
1.44329e-06
1.44361e-06
1.44366e-06
1.44335e-06
1.44287e-06
1.4425e-06
1.44237e-06
1.44253e-06
1.44293e-06
1.4434e-06
1.44367e-06
1.44373e-06
1.4436e-06
1.44322e-06
1.44289e-06
1.44278e-06
1.44293e-06
1.44327e-06
1.44364e-06
1.44372e-06
1.44379e-06
1.44361e-06
1.44338e-06
1.44329e-06
1.4434e-06
1.44364e-06
1.4438e-06
1.44371e-06
1.44366e-06
1.44361e-06
1.44367e-06
1.44372e-06
1.42222e-06
1.42188e-06
1.42174e-06
1.42034e-06
1.42025e-06
1.42024e-06
1.42027e-06
1.42168e-06
1.4218e-06
1.42174e-06
1.41988e-06
1.41754e-06
1.41754e-06
1.41754e-06
1.41754e-06
1.41996e-06
1.42047e-06
1.42035e-06
1.41754e-06
1.4175e-06
1.41754e-06
1.41754e-06
1.4175e-06
1.41754e-06
1.42041e-06
1.42194e-06
1.42222e-06
1.42025e-06
1.41754e-06
1.41754e-06
1.41759e-06
1.41759e-06
1.41754e-06
1.41754e-06
1.42036e-06
1.4217e-06
1.42189e-06
1.42024e-06
1.41754e-06
1.41754e-06
1.41759e-06
1.41759e-06
1.41754e-06
1.41754e-06
1.42032e-06
1.42058e-06
1.42027e-06
1.41754e-06
1.4175e-06
1.41754e-06
1.41754e-06
1.4175e-06
1.41754e-06
1.42039e-06
1.42185e-06
1.42168e-06
1.41996e-06
1.41754e-06
1.41754e-06
1.41754e-06
1.41754e-06
1.41998e-06
1.42048e-06
1.42195e-06
1.4218e-06
1.42047e-06
1.42041e-06
1.42036e-06
1.42032e-06
1.42039e-06
1.42048e-06
1.42167e-06
1.42194e-06
1.4217e-06
1.42058e-06
1.42185e-06
1.42196e-06
1.40704e-06
1.40692e-06
1.40682e-06
1.40534e-06
1.40525e-06
1.40522e-06
1.40531e-06
1.40674e-06
1.40692e-06
1.40682e-06
1.40488e-06
1.4024e-06
1.40239e-06
1.40239e-06
1.4024e-06
1.40496e-06
1.40555e-06
1.40534e-06
1.4024e-06
1.40237e-06
1.40238e-06
1.40238e-06
1.40237e-06
1.4024e-06
1.40545e-06
1.40701e-06
1.40704e-06
1.40526e-06
1.40239e-06
1.40238e-06
1.40239e-06
1.40239e-06
1.40238e-06
1.40239e-06
1.4054e-06
1.40677e-06
1.40692e-06
1.40522e-06
1.40239e-06
1.40238e-06
1.40239e-06
1.40239e-06
1.40238e-06
1.40239e-06
1.40537e-06
1.40564e-06
1.40531e-06
1.4024e-06
1.40237e-06
1.40238e-06
1.40238e-06
1.40237e-06
1.4024e-06
1.40543e-06
1.40694e-06
1.40674e-06
1.40496e-06
1.4024e-06
1.4024e-06
1.4024e-06
1.4024e-06
1.40502e-06
1.40552e-06
1.40703e-06
1.40692e-06
1.40555e-06
1.40545e-06
1.4054e-06
1.40537e-06
1.40543e-06
1.40552e-06
1.40681e-06
1.40701e-06
1.40676e-06
1.40564e-06
1.40694e-06
1.40703e-06
1.39194e-06
1.39182e-06
1.39171e-06
1.39022e-06
1.39013e-06
1.39009e-06
1.39019e-06
1.39164e-06
1.39182e-06
1.39171e-06
1.38975e-06
1.38726e-06
1.38726e-06
1.38726e-06
1.38726e-06
1.38983e-06
1.39043e-06
1.39022e-06
1.38726e-06
1.38726e-06
1.38726e-06
1.38726e-06
1.38726e-06
1.38726e-06
1.39034e-06
1.3919e-06
1.39194e-06
1.39013e-06
1.38726e-06
1.38726e-06
1.38726e-06
1.38726e-06
1.38726e-06
1.38726e-06
1.39029e-06
1.39167e-06
1.39182e-06
1.39009e-06
1.38726e-06
1.38726e-06
1.38726e-06
1.38726e-06
1.38726e-06
1.38726e-06
1.39026e-06
1.39054e-06
1.39019e-06
1.38726e-06
1.38726e-06
1.38726e-06
1.38726e-06
1.38726e-06
1.38726e-06
1.39032e-06
1.39184e-06
1.39164e-06
1.38983e-06
1.38726e-06
1.38726e-06
1.38726e-06
1.38726e-06
1.38993e-06
1.39041e-06
1.39192e-06
1.39182e-06
1.39044e-06
1.39034e-06
1.39029e-06
1.39026e-06
1.39032e-06
1.39042e-06
1.39171e-06
1.3919e-06
1.39167e-06
1.39054e-06
1.39184e-06
1.39192e-06
1.37682e-06
1.3767e-06
1.37659e-06
1.3751e-06
1.37501e-06
1.37497e-06
1.37507e-06
1.37651e-06
1.37669e-06
1.37659e-06
1.37463e-06
1.37213e-06
1.37213e-06
1.37213e-06
1.37213e-06
1.3747e-06
1.37531e-06
1.3751e-06
1.37213e-06
1.37213e-06
1.37213e-06
1.37213e-06
1.37213e-06
1.37213e-06
1.37522e-06
1.37678e-06
1.37682e-06
1.37501e-06
1.37213e-06
1.37213e-06
1.37214e-06
1.37214e-06
1.37213e-06
1.37213e-06
1.37517e-06
1.37655e-06
1.3767e-06
1.37497e-06
1.37213e-06
1.37213e-06
1.37214e-06
1.37214e-06
1.37213e-06
1.37213e-06
1.37514e-06
1.37542e-06
1.37507e-06
1.37213e-06
1.37213e-06
1.37213e-06
1.37213e-06
1.37213e-06
1.37213e-06
1.3752e-06
1.37672e-06
1.37651e-06
1.3747e-06
1.37213e-06
1.37213e-06
1.37213e-06
1.37213e-06
1.37481e-06
1.37529e-06
1.3768e-06
1.37669e-06
1.37531e-06
1.37522e-06
1.37517e-06
1.37514e-06
1.3752e-06
1.3753e-06
1.37659e-06
1.37678e-06
1.37655e-06
1.37542e-06
1.37672e-06
1.3768e-06
1.3617e-06
1.36158e-06
1.36147e-06
1.35997e-06
1.35988e-06
1.35984e-06
1.35994e-06
1.36139e-06
1.36157e-06
1.36147e-06
1.3595e-06
1.35701e-06
1.35701e-06
1.35701e-06
1.35701e-06
1.35958e-06
1.36019e-06
1.35997e-06
1.35701e-06
1.35701e-06
1.35701e-06
1.35701e-06
1.35701e-06
1.35701e-06
1.3601e-06
1.36166e-06
1.3617e-06
1.35988e-06
1.35701e-06
1.35701e-06
1.35701e-06
1.35701e-06
1.35701e-06
1.35701e-06
1.36005e-06
1.36143e-06
1.36158e-06
1.35984e-06
1.35701e-06
1.35701e-06
1.35701e-06
1.35701e-06
1.35701e-06
1.35701e-06
1.36002e-06
1.3603e-06
1.35994e-06
1.35701e-06
1.35701e-06
1.35701e-06
1.35701e-06
1.35701e-06
1.35701e-06
1.36008e-06
1.3616e-06
1.36139e-06
1.35958e-06
1.35701e-06
1.35701e-06
1.35701e-06
1.35701e-06
1.35969e-06
1.36017e-06
1.36168e-06
1.36157e-06
1.36019e-06
1.3601e-06
1.36005e-06
1.36002e-06
1.36008e-06
1.36017e-06
1.36146e-06
1.36166e-06
1.36143e-06
1.3603e-06
1.3616e-06
1.36168e-06
1.34657e-06
1.34646e-06
1.34635e-06
1.34485e-06
1.34476e-06
1.34472e-06
1.34482e-06
1.34627e-06
1.34645e-06
1.34635e-06
1.34438e-06
1.34189e-06
1.34189e-06
1.34189e-06
1.34189e-06
1.34445e-06
1.34507e-06
1.34485e-06
1.34189e-06
1.34189e-06
1.34189e-06
1.34189e-06
1.34189e-06
1.34189e-06
1.34497e-06
1.34654e-06
1.34658e-06
1.34476e-06
1.34189e-06
1.34189e-06
1.34189e-06
1.34189e-06
1.34189e-06
1.34189e-06
1.34493e-06
1.3463e-06
1.34646e-06
1.34472e-06
1.34189e-06
1.34189e-06
1.34189e-06
1.34189e-06
1.34189e-06
1.34189e-06
1.3449e-06
1.34518e-06
1.34482e-06
1.34189e-06
1.34189e-06
1.34189e-06
1.34189e-06
1.34189e-06
1.34189e-06
1.34496e-06
1.34648e-06
1.34627e-06
1.34445e-06
1.34189e-06
1.34189e-06
1.34189e-06
1.34189e-06
1.34456e-06
1.34505e-06
1.34656e-06
1.34645e-06
1.34507e-06
1.34497e-06
1.34493e-06
1.3449e-06
1.34496e-06
1.34505e-06
1.34634e-06
1.34654e-06
1.3463e-06
1.34518e-06
1.34648e-06
1.34656e-06
1.33145e-06
1.33133e-06
1.33122e-06
1.32973e-06
1.32964e-06
1.3296e-06
1.3297e-06
1.33115e-06
1.33132e-06
1.33122e-06
1.32926e-06
1.32676e-06
1.32676e-06
1.32676e-06
1.32676e-06
1.32933e-06
1.32994e-06
1.32973e-06
1.32676e-06
1.32676e-06
1.32676e-06
1.32676e-06
1.32676e-06
1.32676e-06
1.32985e-06
1.33141e-06
1.33145e-06
1.32964e-06
1.32676e-06
1.32676e-06
1.32676e-06
1.32676e-06
1.32676e-06
1.32676e-06
1.32981e-06
1.33118e-06
1.33133e-06
1.3296e-06
1.32676e-06
1.32676e-06
1.32676e-06
1.32676e-06
1.32676e-06
1.32676e-06
1.32978e-06
1.33006e-06
1.3297e-06
1.32676e-06
1.32676e-06
1.32676e-06
1.32676e-06
1.32676e-06
1.32676e-06
1.32983e-06
1.33135e-06
1.33115e-06
1.32933e-06
1.32676e-06
1.32676e-06
1.32676e-06
1.32676e-06
1.32944e-06
1.32993e-06
1.33143e-06
1.33132e-06
1.32994e-06
1.32985e-06
1.32981e-06
1.32978e-06
1.32983e-06
1.32993e-06
1.33122e-06
1.33141e-06
1.33118e-06
1.33006e-06
1.33135e-06
1.33143e-06
1.31633e-06
1.31621e-06
1.3161e-06
1.3146e-06
1.31452e-06
1.31447e-06
1.31457e-06
1.31602e-06
1.3162e-06
1.3161e-06
1.31414e-06
1.31164e-06
1.31164e-06
1.31164e-06
1.31164e-06
1.31421e-06
1.31482e-06
1.3146e-06
1.31164e-06
1.31164e-06
1.31164e-06
1.31164e-06
1.31164e-06
1.31164e-06
1.31473e-06
1.31629e-06
1.31633e-06
1.31452e-06
1.31164e-06
1.31164e-06
1.31164e-06
1.31164e-06
1.31164e-06
1.31164e-06
1.31468e-06
1.31606e-06
1.31621e-06
1.31447e-06
1.31164e-06
1.31164e-06
1.31164e-06
1.31164e-06
1.31164e-06
1.31164e-06
1.31465e-06
1.31493e-06
1.31457e-06
1.31164e-06
1.31164e-06
1.31164e-06
1.31164e-06
1.31164e-06
1.31164e-06
1.31471e-06
1.31623e-06
1.31602e-06
1.31421e-06
1.31164e-06
1.31164e-06
1.31164e-06
1.31164e-06
1.31432e-06
1.3148e-06
1.31631e-06
1.3162e-06
1.31482e-06
1.31473e-06
1.31468e-06
1.31465e-06
1.31471e-06
1.3148e-06
1.31609e-06
1.31629e-06
1.31606e-06
1.31493e-06
1.31623e-06
1.31631e-06
1.3012e-06
1.30109e-06
1.30098e-06
1.29948e-06
1.29939e-06
1.29935e-06
1.29945e-06
1.3009e-06
1.30108e-06
1.30098e-06
1.29901e-06
1.29652e-06
1.29652e-06
1.29652e-06
1.29652e-06
1.29909e-06
1.2997e-06
1.29948e-06
1.29652e-06
1.29652e-06
1.29652e-06
1.29652e-06
1.29652e-06
1.29652e-06
1.2996e-06
1.30117e-06
1.3012e-06
1.29939e-06
1.29652e-06
1.29652e-06
1.29652e-06
1.29652e-06
1.29652e-06
1.29652e-06
1.29956e-06
1.30093e-06
1.30108e-06
1.29935e-06
1.29652e-06
1.29652e-06
1.29652e-06
1.29652e-06
1.29652e-06
1.29652e-06
1.29953e-06
1.29981e-06
1.29945e-06
1.29652e-06
1.29652e-06
1.29652e-06
1.29652e-06
1.29652e-06
1.29652e-06
1.29959e-06
1.30111e-06
1.3009e-06
1.29909e-06
1.29652e-06
1.29652e-06
1.29652e-06
1.29652e-06
1.2992e-06
1.29968e-06
1.30119e-06
1.30108e-06
1.2997e-06
1.2996e-06
1.29956e-06
1.29953e-06
1.29959e-06
1.29968e-06
1.30097e-06
1.30117e-06
1.30094e-06
1.29981e-06
1.30111e-06
1.30119e-06
1.28608e-06
1.28596e-06
1.28585e-06
1.28436e-06
1.28427e-06
1.28423e-06
1.28433e-06
1.28578e-06
1.28596e-06
1.28585e-06
1.28389e-06
1.28139e-06
1.28139e-06
1.28139e-06
1.28139e-06
1.28396e-06
1.28457e-06
1.28436e-06
1.28139e-06
1.28139e-06
1.28139e-06
1.28139e-06
1.28139e-06
1.28139e-06
1.28448e-06
1.28604e-06
1.28608e-06
1.28427e-06
1.28139e-06
1.28139e-06
1.28139e-06
1.28139e-06
1.28139e-06
1.28139e-06
1.28444e-06
1.28581e-06
1.28596e-06
1.28423e-06
1.28139e-06
1.28139e-06
1.28139e-06
1.28139e-06
1.28139e-06
1.28139e-06
1.28441e-06
1.28469e-06
1.28433e-06
1.28139e-06
1.28139e-06
1.28139e-06
1.28139e-06
1.28139e-06
1.28139e-06
1.28446e-06
1.28599e-06
1.28578e-06
1.28396e-06
1.28139e-06
1.28139e-06
1.28139e-06
1.28139e-06
1.28407e-06
1.28456e-06
1.28606e-06
1.28596e-06
1.28457e-06
1.28448e-06
1.28444e-06
1.28441e-06
1.28446e-06
1.28456e-06
1.28585e-06
1.28604e-06
1.28581e-06
1.28469e-06
1.28599e-06
1.28606e-06
1.27096e-06
1.27084e-06
1.27073e-06
1.26924e-06
1.26915e-06
1.2691e-06
1.2692e-06
1.27065e-06
1.27083e-06
1.27073e-06
1.26877e-06
1.26627e-06
1.26627e-06
1.26627e-06
1.26627e-06
1.26884e-06
1.26945e-06
1.26924e-06
1.26627e-06
1.26627e-06
1.26627e-06
1.26627e-06
1.26627e-06
1.26627e-06
1.26936e-06
1.27092e-06
1.27096e-06
1.26915e-06
1.26627e-06
1.26627e-06
1.26627e-06
1.26627e-06
1.26627e-06
1.26627e-06
1.26931e-06
1.27069e-06
1.27084e-06
1.2691e-06
1.26627e-06
1.26627e-06
1.26627e-06
1.26627e-06
1.26627e-06
1.26627e-06
1.26928e-06
1.26956e-06
1.2692e-06
1.26627e-06
1.26627e-06
1.26627e-06
1.26627e-06
1.26627e-06
1.26627e-06
1.26934e-06
1.27086e-06
1.27065e-06
1.26884e-06
1.26627e-06
1.26627e-06
1.26627e-06
1.26627e-06
1.26895e-06
1.26943e-06
1.27094e-06
1.27083e-06
1.26945e-06
1.26936e-06
1.26931e-06
1.26928e-06
1.26934e-06
1.26943e-06
1.27072e-06
1.27092e-06
1.27069e-06
1.26956e-06
1.27086e-06
1.27094e-06
1.25584e-06
1.25572e-06
1.25561e-06
1.25411e-06
1.25402e-06
1.25398e-06
1.25408e-06
1.25553e-06
1.25571e-06
1.25561e-06
1.25364e-06
1.25115e-06
1.25115e-06
1.25115e-06
1.25115e-06
1.25372e-06
1.25433e-06
1.25411e-06
1.25115e-06
1.25115e-06
1.25115e-06
1.25115e-06
1.25115e-06
1.25115e-06
1.25423e-06
1.2558e-06
1.25584e-06
1.25402e-06
1.25115e-06
1.25115e-06
1.25115e-06
1.25115e-06
1.25115e-06
1.25115e-06
1.25419e-06
1.25557e-06
1.25572e-06
1.25398e-06
1.25115e-06
1.25115e-06
1.25115e-06
1.25115e-06
1.25115e-06
1.25115e-06
1.25416e-06
1.25444e-06
1.25408e-06
1.25115e-06
1.25115e-06
1.25115e-06
1.25115e-06
1.25115e-06
1.25115e-06
1.25422e-06
1.25574e-06
1.25553e-06
1.25372e-06
1.25115e-06
1.25115e-06
1.25115e-06
1.25115e-06
1.25383e-06
1.25431e-06
1.25582e-06
1.25571e-06
1.25433e-06
1.25423e-06
1.25419e-06
1.25416e-06
1.25422e-06
1.25431e-06
1.2556e-06
1.2558e-06
1.25557e-06
1.25444e-06
1.25574e-06
1.25582e-06
1.24071e-06
1.24059e-06
1.24048e-06
1.23899e-06
1.2389e-06
1.23886e-06
1.23896e-06
1.24041e-06
1.24059e-06
1.24048e-06
1.23852e-06
1.23603e-06
1.23603e-06
1.23602e-06
1.23602e-06
1.23859e-06
1.23921e-06
1.23899e-06
1.23602e-06
1.23603e-06
1.23603e-06
1.23603e-06
1.23603e-06
1.23602e-06
1.23911e-06
1.24067e-06
1.24072e-06
1.2389e-06
1.23602e-06
1.23603e-06
1.23602e-06
1.23603e-06
1.23603e-06
1.23602e-06
1.23907e-06
1.24044e-06
1.2406e-06
1.23886e-06
1.23603e-06
1.23602e-06
1.23602e-06
1.23602e-06
1.23603e-06
1.23602e-06
1.23904e-06
1.23932e-06
1.23896e-06
1.23602e-06
1.23602e-06
1.23602e-06
1.23602e-06
1.23603e-06
1.23602e-06
1.23909e-06
1.24062e-06
1.24041e-06
1.23859e-06
1.23602e-06
1.23602e-06
1.23602e-06
1.23602e-06
1.2387e-06
1.23919e-06
1.24069e-06
1.24059e-06
1.2392e-06
1.23911e-06
1.23907e-06
1.23904e-06
1.23909e-06
1.23919e-06
1.24048e-06
1.24067e-06
1.24044e-06
1.23932e-06
1.24062e-06
1.24069e-06
1.22559e-06
1.22547e-06
1.22536e-06
1.22387e-06
1.22378e-06
1.22373e-06
1.22383e-06
1.22528e-06
1.22546e-06
1.22536e-06
1.2234e-06
1.2209e-06
1.2209e-06
1.2209e-06
1.2209e-06
1.22347e-06
1.22408e-06
1.22387e-06
1.2209e-06
1.2209e-06
1.2209e-06
1.2209e-06
1.2209e-06
1.2209e-06
1.22399e-06
1.22555e-06
1.22559e-06
1.22378e-06
1.2209e-06
1.2209e-06
1.2209e-06
1.2209e-06
1.2209e-06
1.2209e-06
1.22394e-06
1.22532e-06
1.22547e-06
1.22373e-06
1.2209e-06
1.2209e-06
1.2209e-06
1.2209e-06
1.2209e-06
1.2209e-06
1.22392e-06
1.22419e-06
1.22383e-06
1.2209e-06
1.2209e-06
1.2209e-06
1.2209e-06
1.2209e-06
1.2209e-06
1.22397e-06
1.22549e-06
1.22528e-06
1.22347e-06
1.2209e-06
1.2209e-06
1.2209e-06
1.2209e-06
1.22358e-06
1.22407e-06
1.22557e-06
1.22546e-06
1.22408e-06
1.22399e-06
1.22394e-06
1.22391e-06
1.22397e-06
1.22407e-06
1.22536e-06
1.22555e-06
1.22532e-06
1.22419e-06
1.22549e-06
1.22557e-06
1.21047e-06
1.21035e-06
1.21024e-06
1.20874e-06
1.20865e-06
1.20861e-06
1.20871e-06
1.21016e-06
1.21034e-06
1.21024e-06
1.20827e-06
1.20578e-06
1.20578e-06
1.20578e-06
1.20578e-06
1.20835e-06
1.20896e-06
1.20874e-06
1.20578e-06
1.20578e-06
1.20578e-06
1.20578e-06
1.20578e-06
1.20578e-06
1.20887e-06
1.21043e-06
1.21047e-06
1.20865e-06
1.20578e-06
1.20578e-06
1.20578e-06
1.20578e-06
1.20578e-06
1.20578e-06
1.20882e-06
1.2102e-06
1.21035e-06
1.20861e-06
1.20578e-06
1.20578e-06
1.20578e-06
1.20578e-06
1.20578e-06
1.20578e-06
1.20879e-06
1.20907e-06
1.20871e-06
1.20578e-06
1.20578e-06
1.20578e-06
1.20578e-06
1.20578e-06
1.20578e-06
1.20885e-06
1.21037e-06
1.21016e-06
1.20835e-06
1.20578e-06
1.20578e-06
1.20578e-06
1.20578e-06
1.20846e-06
1.20894e-06
1.21045e-06
1.21034e-06
1.20896e-06
1.20887e-06
1.20882e-06
1.20879e-06
1.20885e-06
1.20894e-06
1.21023e-06
1.21043e-06
1.2102e-06
1.20907e-06
1.21037e-06
1.21045e-06
1.19534e-06
1.19522e-06
1.19511e-06
1.19362e-06
1.19353e-06
1.19349e-06
1.19359e-06
1.19504e-06
1.19522e-06
1.19511e-06
1.19315e-06
1.19066e-06
1.19066e-06
1.19066e-06
1.19066e-06
1.19322e-06
1.19384e-06
1.19362e-06
1.19066e-06
1.19066e-06
1.19066e-06
1.19066e-06
1.19066e-06
1.19066e-06
1.19374e-06
1.1953e-06
1.19534e-06
1.19353e-06
1.19066e-06
1.19066e-06
1.19066e-06
1.19066e-06
1.19066e-06
1.19066e-06
1.1937e-06
1.19507e-06
1.19522e-06
1.19349e-06
1.19066e-06
1.19066e-06
1.19066e-06
1.19066e-06
1.19066e-06
1.19066e-06
1.19367e-06
1.19395e-06
1.19359e-06
1.19066e-06
1.19066e-06
1.19066e-06
1.19066e-06
1.19066e-06
1.19066e-06
1.19373e-06
1.19525e-06
1.19504e-06
1.19322e-06
1.19066e-06
1.19066e-06
1.19066e-06
1.19066e-06
1.19333e-06
1.19382e-06
1.19533e-06
1.19522e-06
1.19384e-06
1.19374e-06
1.1937e-06
1.19367e-06
1.19373e-06
1.19382e-06
1.19511e-06
1.1953e-06
1.19507e-06
1.19395e-06
1.19525e-06
1.19533e-06
1.18022e-06
1.1801e-06
1.17999e-06
1.1785e-06
1.17841e-06
1.17836e-06
1.17846e-06
1.17991e-06
1.18009e-06
1.17999e-06
1.17803e-06
1.17553e-06
1.17553e-06
1.17553e-06
1.17553e-06
1.1781e-06
1.17871e-06
1.1785e-06
1.17553e-06
1.17553e-06
1.17553e-06
1.17553e-06
1.17553e-06
1.17553e-06
1.17862e-06
1.18018e-06
1.18022e-06
1.17841e-06
1.17553e-06
1.17553e-06
1.17553e-06
1.17553e-06
1.17553e-06
1.17553e-06
1.17858e-06
1.17995e-06
1.1801e-06
1.17836e-06
1.17553e-06
1.17553e-06
1.17553e-06
1.17553e-06
1.17553e-06
1.17553e-06
1.17855e-06
1.17883e-06
1.17846e-06
1.17553e-06
1.17553e-06
1.17553e-06
1.17553e-06
1.17553e-06
1.17553e-06
1.1786e-06
1.18012e-06
1.17991e-06
1.1781e-06
1.17553e-06
1.17553e-06
1.17553e-06
1.17553e-06
1.17821e-06
1.1787e-06
1.1802e-06
1.18009e-06
1.17871e-06
1.17862e-06
1.17858e-06
1.17855e-06
1.1786e-06
1.1787e-06
1.17999e-06
1.18018e-06
1.17995e-06
1.17882e-06
1.18012e-06
1.1802e-06
1.1651e-06
1.16498e-06
1.16487e-06
1.16337e-06
1.16328e-06
1.16324e-06
1.16334e-06
1.16479e-06
1.16497e-06
1.16487e-06
1.1629e-06
1.16041e-06
1.16041e-06
1.16041e-06
1.16041e-06
1.16298e-06
1.16359e-06
1.16337e-06
1.16041e-06
1.16041e-06
1.16041e-06
1.16041e-06
1.16041e-06
1.16041e-06
1.1635e-06
1.16506e-06
1.1651e-06
1.16328e-06
1.16041e-06
1.16041e-06
1.16041e-06
1.16041e-06
1.16041e-06
1.16041e-06
1.16345e-06
1.16483e-06
1.16498e-06
1.16324e-06
1.16041e-06
1.16041e-06
1.16041e-06
1.16041e-06
1.16041e-06
1.16041e-06
1.16342e-06
1.1637e-06
1.16334e-06
1.16041e-06
1.16041e-06
1.16041e-06
1.16041e-06
1.16041e-06
1.16041e-06
1.16348e-06
1.165e-06
1.16479e-06
1.16298e-06
1.16041e-06
1.16041e-06
1.16041e-06
1.16041e-06
1.16309e-06
1.16357e-06
1.16508e-06
1.16497e-06
1.16359e-06
1.1635e-06
1.16345e-06
1.16342e-06
1.16348e-06
1.16357e-06
1.16486e-06
1.16506e-06
1.16483e-06
1.1637e-06
1.165e-06
1.16508e-06
1.14997e-06
1.14986e-06
1.14975e-06
1.14825e-06
1.14816e-06
1.14812e-06
1.14822e-06
1.14967e-06
1.14985e-06
1.14975e-06
1.14778e-06
1.14529e-06
1.14529e-06
1.14529e-06
1.14529e-06
1.14785e-06
1.14847e-06
1.14825e-06
1.14529e-06
1.14529e-06
1.14529e-06
1.14529e-06
1.14529e-06
1.14529e-06
1.14837e-06
1.14994e-06
1.14997e-06
1.14816e-06
1.14529e-06
1.14529e-06
1.14529e-06
1.14529e-06
1.14529e-06
1.14529e-06
1.14833e-06
1.1497e-06
1.14986e-06
1.14812e-06
1.14529e-06
1.14529e-06
1.14529e-06
1.14529e-06
1.14529e-06
1.14529e-06
1.1483e-06
1.14858e-06
1.14822e-06
1.14529e-06
1.14529e-06
1.14529e-06
1.14529e-06
1.14529e-06
1.14529e-06
1.14836e-06
1.14988e-06
1.14967e-06
1.14785e-06
1.14529e-06
1.14529e-06
1.14529e-06
1.14529e-06
1.14797e-06
1.14845e-06
1.14996e-06
1.14985e-06
1.14847e-06
1.14837e-06
1.14833e-06
1.1483e-06
1.14836e-06
1.14845e-06
1.14974e-06
1.14994e-06
1.1497e-06
1.14858e-06
1.14988e-06
1.14996e-06
1.13485e-06
1.13473e-06
1.13462e-06
1.13313e-06
1.13304e-06
1.133e-06
1.1331e-06
1.13455e-06
1.13472e-06
1.13462e-06
1.13266e-06
1.13016e-06
1.13016e-06
1.13016e-06
1.13016e-06
1.13273e-06
1.13334e-06
1.13313e-06
1.13016e-06
1.13016e-06
1.13016e-06
1.13016e-06
1.13016e-06
1.13016e-06
1.13325e-06
1.13481e-06
1.13485e-06
1.13304e-06
1.13016e-06
1.13016e-06
1.13016e-06
1.13016e-06
1.13016e-06
1.13016e-06
1.13321e-06
1.13458e-06
1.13473e-06
1.133e-06
1.13016e-06
1.13016e-06
1.13016e-06
1.13016e-06
1.13016e-06
1.13016e-06
1.13318e-06
1.13346e-06
1.1331e-06
1.13016e-06
1.13016e-06
1.13016e-06
1.13016e-06
1.13016e-06
1.13016e-06
1.13323e-06
1.13476e-06
1.13455e-06
1.13273e-06
1.13016e-06
1.13016e-06
1.13016e-06
1.13016e-06
1.13284e-06
1.13333e-06
1.13483e-06
1.13472e-06
1.13334e-06
1.13325e-06
1.13321e-06
1.13318e-06
1.13323e-06
1.13333e-06
1.13462e-06
1.13481e-06
1.13458e-06
1.13346e-06
1.13475e-06
1.13483e-06
1.11973e-06
1.11961e-06
1.1195e-06
1.118e-06
1.11792e-06
1.11787e-06
1.11797e-06
1.11942e-06
1.1196e-06
1.1195e-06
1.11754e-06
1.11504e-06
1.11504e-06
1.11504e-06
1.11504e-06
1.11761e-06
1.11822e-06
1.118e-06
1.11504e-06
1.11504e-06
1.11504e-06
1.11504e-06
1.11504e-06
1.11504e-06
1.11813e-06
1.11969e-06
1.11973e-06
1.11792e-06
1.11504e-06
1.11504e-06
1.11504e-06
1.11504e-06
1.11504e-06
1.11504e-06
1.11808e-06
1.11946e-06
1.11961e-06
1.11787e-06
1.11504e-06
1.11504e-06
1.11504e-06
1.11504e-06
1.11504e-06
1.11504e-06
1.11805e-06
1.11833e-06
1.11797e-06
1.11504e-06
1.11504e-06
1.11504e-06
1.11504e-06
1.11504e-06
1.11504e-06
1.11811e-06
1.11963e-06
1.11942e-06
1.11761e-06
1.11504e-06
1.11504e-06
1.11504e-06
1.11504e-06
1.11772e-06
1.1182e-06
1.11971e-06
1.1196e-06
1.11822e-06
1.11813e-06
1.11808e-06
1.11805e-06
1.11811e-06
1.1182e-06
1.11949e-06
1.11969e-06
1.11946e-06
1.11833e-06
1.11963e-06
1.11971e-06
1.1046e-06
1.10449e-06
1.10438e-06
1.10288e-06
1.10279e-06
1.10275e-06
1.10285e-06
1.1043e-06
1.10448e-06
1.10438e-06
1.10241e-06
1.09992e-06
1.09992e-06
1.09992e-06
1.09992e-06
1.10249e-06
1.1031e-06
1.10288e-06
1.09992e-06
1.09992e-06
1.09992e-06
1.09992e-06
1.09992e-06
1.09992e-06
1.103e-06
1.10457e-06
1.1046e-06
1.10279e-06
1.09992e-06
1.09992e-06
1.09992e-06
1.09992e-06
1.09992e-06
1.09992e-06
1.10296e-06
1.10433e-06
1.10449e-06
1.10275e-06
1.09992e-06
1.09992e-06
1.09992e-06
1.09992e-06
1.09992e-06
1.09992e-06
1.10293e-06
1.10321e-06
1.10285e-06
1.09992e-06
1.09992e-06
1.09992e-06
1.09992e-06
1.09992e-06
1.09992e-06
1.10299e-06
1.10451e-06
1.1043e-06
1.10249e-06
1.09992e-06
1.09992e-06
1.09992e-06
1.09992e-06
1.1026e-06
1.10308e-06
1.10459e-06
1.10448e-06
1.1031e-06
1.103e-06
1.10296e-06
1.10293e-06
1.10299e-06
1.10308e-06
1.10437e-06
1.10457e-06
1.10434e-06
1.10321e-06
1.10451e-06
1.10459e-06
1.08948e-06
1.08936e-06
1.08925e-06
1.08776e-06
1.08767e-06
1.08763e-06
1.08773e-06
1.08918e-06
1.08936e-06
1.08925e-06
1.08729e-06
1.08479e-06
1.08479e-06
1.08479e-06
1.08479e-06
1.08736e-06
1.08797e-06
1.08776e-06
1.08479e-06
1.08479e-06
1.08479e-06
1.08479e-06
1.08479e-06
1.08479e-06
1.08788e-06
1.08944e-06
1.08948e-06
1.08767e-06
1.08479e-06
1.08479e-06
1.08479e-06
1.08479e-06
1.08479e-06
1.08479e-06
1.08784e-06
1.08921e-06
1.08936e-06
1.08763e-06
1.08479e-06
1.08479e-06
1.08479e-06
1.08479e-06
1.08479e-06
1.08479e-06
1.08781e-06
1.08809e-06
1.08773e-06
1.08479e-06
1.08479e-06
1.08479e-06
1.08479e-06
1.08479e-06
1.08479e-06
1.08786e-06
1.08939e-06
1.08918e-06
1.08736e-06
1.08479e-06
1.08479e-06
1.08479e-06
1.08479e-06
1.08747e-06
1.08796e-06
1.08946e-06
1.08936e-06
1.08797e-06
1.08788e-06
1.08784e-06
1.08781e-06
1.08786e-06
1.08796e-06
1.08925e-06
1.08944e-06
1.08921e-06
1.08809e-06
1.08939e-06
1.08946e-06
1.07436e-06
1.07424e-06
1.07413e-06
1.07264e-06
1.07255e-06
1.0725e-06
1.0726e-06
1.07405e-06
1.07423e-06
1.07413e-06
1.07217e-06
1.06967e-06
1.06967e-06
1.06967e-06
1.06967e-06
1.07224e-06
1.07285e-06
1.07264e-06
1.06967e-06
1.06967e-06
1.06967e-06
1.06967e-06
1.06967e-06
1.06967e-06
1.07276e-06
1.07432e-06
1.07436e-06
1.07255e-06
1.06967e-06
1.06967e-06
1.06967e-06
1.06967e-06
1.06967e-06
1.06967e-06
1.07271e-06
1.07409e-06
1.07424e-06
1.0725e-06
1.06967e-06
1.06967e-06
1.06967e-06
1.06967e-06
1.06967e-06
1.06967e-06
1.07268e-06
1.07296e-06
1.0726e-06
1.06967e-06
1.06967e-06
1.06967e-06
1.06967e-06
1.06967e-06
1.06967e-06
1.07274e-06
1.07426e-06
1.07405e-06
1.07224e-06
1.06967e-06
1.06967e-06
1.06967e-06
1.06967e-06
1.07235e-06
1.07284e-06
1.07434e-06
1.07423e-06
1.07285e-06
1.07276e-06
1.07271e-06
1.07269e-06
1.07274e-06
1.07284e-06
1.07413e-06
1.07432e-06
1.07409e-06
1.07297e-06
1.07426e-06
1.07434e-06
1.05924e-06
1.05912e-06
1.05901e-06
1.05751e-06
1.05742e-06
1.05738e-06
1.05748e-06
1.05893e-06
1.05911e-06
1.05901e-06
1.05704e-06
1.05455e-06
1.05455e-06
1.05455e-06
1.05455e-06
1.05712e-06
1.05773e-06
1.05751e-06
1.05455e-06
1.05455e-06
1.05455e-06
1.05455e-06
1.05455e-06
1.05455e-06
1.05764e-06
1.0592e-06
1.05924e-06
1.05742e-06
1.05455e-06
1.05455e-06
1.05455e-06
1.05455e-06
1.05455e-06
1.05455e-06
1.05759e-06
1.05897e-06
1.05912e-06
1.05738e-06
1.05455e-06
1.05455e-06
1.05455e-06
1.05455e-06
1.05455e-06
1.05455e-06
1.05756e-06
1.05784e-06
1.05748e-06
1.05455e-06
1.05455e-06
1.05455e-06
1.05455e-06
1.05455e-06
1.05455e-06
1.05762e-06
1.05914e-06
1.05893e-06
1.05712e-06
1.05455e-06
1.05455e-06
1.05455e-06
1.05455e-06
1.05723e-06
1.05771e-06
1.05922e-06
1.05911e-06
1.05773e-06
1.05764e-06
1.05759e-06
1.05756e-06
1.05762e-06
1.05771e-06
1.059e-06
1.0592e-06
1.05897e-06
1.05784e-06
1.05914e-06
1.05922e-06
1.04411e-06
1.04399e-06
1.04388e-06
1.04239e-06
1.0423e-06
1.04226e-06
1.04236e-06
1.04381e-06
1.04399e-06
1.04388e-06
1.04192e-06
1.03943e-06
1.03943e-06
1.03943e-06
1.03943e-06
1.04199e-06
1.04261e-06
1.04239e-06
1.03943e-06
1.03943e-06
1.03943e-06
1.03943e-06
1.03943e-06
1.03943e-06
1.04251e-06
1.04407e-06
1.04411e-06
1.0423e-06
1.03943e-06
1.03943e-06
1.03943e-06
1.03943e-06
1.03943e-06
1.03943e-06
1.04247e-06
1.04384e-06
1.04399e-06
1.04226e-06
1.03943e-06
1.03943e-06
1.03943e-06
1.03943e-06
1.03943e-06
1.03943e-06
1.04244e-06
1.04272e-06
1.04236e-06
1.03943e-06
1.03943e-06
1.03943e-06
1.03943e-06
1.03943e-06
1.03943e-06
1.0425e-06
1.04402e-06
1.04381e-06
1.04199e-06
1.03943e-06
1.03943e-06
1.03943e-06
1.03943e-06
1.0421e-06
1.04259e-06
1.0441e-06
1.04399e-06
1.04261e-06
1.04251e-06
1.04247e-06
1.04244e-06
1.0425e-06
1.04259e-06
1.04388e-06
1.04407e-06
1.04384e-06
1.04272e-06
1.04402e-06
1.0441e-06
1.02899e-06
1.02887e-06
1.02876e-06
1.02727e-06
1.02718e-06
1.02714e-06
1.02723e-06
1.02868e-06
1.02886e-06
1.02876e-06
1.0268e-06
1.0243e-06
1.0243e-06
1.0243e-06
1.0243e-06
1.02687e-06
1.02748e-06
1.02727e-06
1.0243e-06
1.0243e-06
1.0243e-06
1.0243e-06
1.0243e-06
1.0243e-06
1.02739e-06
1.02895e-06
1.02899e-06
1.02718e-06
1.0243e-06
1.0243e-06
1.0243e-06
1.0243e-06
1.0243e-06
1.0243e-06
1.02735e-06
1.02872e-06
1.02887e-06
1.02714e-06
1.0243e-06
1.0243e-06
1.0243e-06
1.0243e-06
1.0243e-06
1.0243e-06
1.02732e-06
1.0276e-06
1.02724e-06
1.0243e-06
1.0243e-06
1.0243e-06
1.0243e-06
1.0243e-06
1.0243e-06
1.02737e-06
1.02889e-06
1.02868e-06
1.02687e-06
1.0243e-06
1.0243e-06
1.0243e-06
1.0243e-06
1.02698e-06
1.02747e-06
1.02897e-06
1.02886e-06
1.02748e-06
1.02739e-06
1.02735e-06
1.02732e-06
1.02737e-06
1.02747e-06
1.02876e-06
1.02895e-06
1.02872e-06
1.0276e-06
1.02889e-06
1.02897e-06
1.01387e-06
1.01375e-06
1.01364e-06
1.01214e-06
1.01205e-06
1.01201e-06
1.01211e-06
1.01356e-06
1.01374e-06
1.01364e-06
1.01167e-06
1.00918e-06
1.00918e-06
1.00918e-06
1.00918e-06
1.01175e-06
1.01236e-06
1.01214e-06
1.00918e-06
1.00918e-06
1.00918e-06
1.00918e-06
1.00918e-06
1.00918e-06
1.01227e-06
1.01383e-06
1.01387e-06
1.01205e-06
1.00918e-06
1.00918e-06
1.00918e-06
1.00918e-06
1.00918e-06
1.00918e-06
1.01222e-06
1.0136e-06
1.01374e-06
1.01201e-06
1.00918e-06
1.00918e-06
1.00918e-06
1.00918e-06
1.00918e-06
1.00918e-06
1.01219e-06
1.01247e-06
1.01211e-06
1.00918e-06
1.00918e-06
1.00918e-06
1.00918e-06
1.00918e-06
1.00918e-06
1.01225e-06
1.01377e-06
1.01356e-06
1.01175e-06
1.00918e-06
1.00918e-06
1.00918e-06
1.00918e-06
1.01186e-06
1.01234e-06
1.01385e-06
1.01374e-06
1.01236e-06
1.01227e-06
1.01222e-06
1.01219e-06
1.01225e-06
1.01234e-06
1.01363e-06
1.01383e-06
1.0136e-06
1.01247e-06
1.01377e-06
1.01385e-06
9.98744e-07
9.98626e-07
9.98516e-07
9.97021e-07
9.96932e-07
9.96889e-07
9.96989e-07
9.98439e-07
9.98618e-07
9.98516e-07
9.96552e-07
9.94057e-07
9.94057e-07
9.94057e-07
9.94057e-07
9.96625e-07
9.97237e-07
9.97021e-07
9.94057e-07
9.94057e-07
9.94057e-07
9.94057e-07
9.94057e-07
9.94057e-07
9.97144e-07
9.98706e-07
9.98744e-07
9.96932e-07
9.94057e-07
9.94057e-07
9.94057e-07
9.94057e-07
9.94057e-07
9.94057e-07
9.971e-07
9.98474e-07
9.98624e-07
9.9689e-07
9.94057e-07
9.94057e-07
9.94057e-07
9.94057e-07
9.94057e-07
9.94057e-07
9.9707e-07
9.9735e-07
9.96989e-07
9.94057e-07
9.94057e-07
9.94057e-07
9.94057e-07
9.94057e-07
9.94057e-07
9.97127e-07
9.98649e-07
9.98439e-07
9.96625e-07
9.94057e-07
9.94057e-07
9.94057e-07
9.94057e-07
9.96736e-07
9.97221e-07
9.98727e-07
9.98618e-07
9.97237e-07
9.97144e-07
9.971e-07
9.9707e-07
9.97127e-07
9.97221e-07
9.98511e-07
9.98706e-07
9.98475e-07
9.9735e-07
9.98649e-07
9.98726e-07
9.83622e-07
9.83503e-07
9.83393e-07
9.81899e-07
9.81809e-07
9.81766e-07
9.81866e-07
9.83316e-07
9.83495e-07
9.83393e-07
9.81429e-07
9.78934e-07
9.78934e-07
9.78934e-07
9.78934e-07
9.81502e-07
9.82114e-07
9.81899e-07
9.78934e-07
9.78934e-07
9.78934e-07
9.78934e-07
9.78934e-07
9.78934e-07
9.82021e-07
9.83583e-07
9.83622e-07
9.81809e-07
9.78934e-07
9.78934e-07
9.78934e-07
9.78934e-07
9.78934e-07
9.78934e-07
9.81977e-07
9.83351e-07
9.83503e-07
9.81766e-07
9.78934e-07
9.78934e-07
9.78934e-07
9.78934e-07
9.78934e-07
9.78934e-07
9.81947e-07
9.82227e-07
9.81866e-07
9.78934e-07
9.78934e-07
9.78934e-07
9.78934e-07
9.78934e-07
9.78934e-07
9.82004e-07
9.83526e-07
9.83316e-07
9.81502e-07
9.78934e-07
9.78934e-07
9.78934e-07
9.78934e-07
9.81613e-07
9.82098e-07
9.83604e-07
9.83495e-07
9.82114e-07
9.82021e-07
9.81977e-07
9.81947e-07
9.82004e-07
9.82098e-07
9.83388e-07
9.83583e-07
9.83352e-07
9.82227e-07
9.83526e-07
9.83604e-07
9.68499e-07
9.6838e-07
9.6827e-07
9.66776e-07
9.66686e-07
9.66643e-07
9.66743e-07
9.68193e-07
9.68372e-07
9.6827e-07
9.66306e-07
9.63811e-07
9.63811e-07
9.63811e-07
9.63811e-07
9.66379e-07
9.66991e-07
9.66776e-07
9.63811e-07
9.63811e-07
9.63811e-07
9.63811e-07
9.63811e-07
9.63811e-07
9.66898e-07
9.6846e-07
9.68499e-07
9.66686e-07
9.63811e-07
9.63811e-07
9.63811e-07
9.63811e-07
9.63811e-07
9.63811e-07
9.66854e-07
9.68229e-07
9.6838e-07
9.66643e-07
9.63811e-07
9.63811e-07
9.63811e-07
9.63811e-07
9.63811e-07
9.63811e-07
9.66824e-07
9.67104e-07
9.66743e-07
9.63811e-07
9.63811e-07
9.63811e-07
9.63811e-07
9.63811e-07
9.63811e-07
9.66881e-07
9.68403e-07
9.68193e-07
9.66379e-07
9.63811e-07
9.63811e-07
9.63811e-07
9.63811e-07
9.6649e-07
9.66975e-07
9.68481e-07
9.68373e-07
9.66991e-07