/*--------------------------------*- C++ -*----------------------------------*\
| =========                 |                                                 |
| \\      /  F ield         | OpenFOAM: The Open Source CFD Toolbox           |
|  \\    /   O peration     | Version:  v2012                                 |
|   \\  /    A nd           | Website:  www.openfoam.com                      |
|    \\/     M anipulation  |                                                 |
\*---------------------------------------------------------------------------*/
FoamFile
{
    version     2.0;
    format      ascii;
    class       volScalarField;
    location    "0.04";
    object      p;
}
// * * * * * * * * * * * * * * * * * * * * * * * * * * * * * * * * * * * * * //

dimensions      [0 2 -2 0 0 0 0];


internalField   nonuniform List<scalar> 
244288
(
2.69634e-06
2.69969e-06
2.69938e-06
2.69848e-06
2.69782e-06
2.69864e-06
2.69951e-06
2.69969e-06
2.70002e-06
2.7e-06
2.69953e-06
2.69922e-06
2.69962e-06
2.70006e-06
2.70001e-06
2.69938e-06
2.7e-06
2.69988e-06
2.69946e-06
2.69927e-06
2.69952e-06
2.69994e-06
2.69999e-06
2.69928e-06
2.69848e-06
2.69953e-06
2.69946e-06
2.69909e-06
2.69893e-06
2.69914e-06
2.69951e-06
2.69949e-06
2.69826e-06
2.69633e-06
2.69781e-06
2.69921e-06
2.69926e-06
2.69893e-06
2.69879e-06
2.69898e-06
2.69931e-06
2.69915e-06
2.69756e-06
2.69862e-06
2.69961e-06
2.69951e-06
2.69914e-06
2.69898e-06
2.69919e-06
2.69957e-06
2.69959e-06
2.69842e-06
2.69949e-06
2.70005e-06
2.69993e-06
2.69951e-06
2.69931e-06
2.69957e-06
2.69999e-06
2.70005e-06
2.69943e-06
2.7e-06
2.69999e-06
2.69949e-06
2.69915e-06
2.69958e-06
2.70004e-06
2.69998e-06
2.69928e-06
2.69826e-06
2.69755e-06
2.69841e-06
2.69941e-06
2.66171e-06
2.66048e-06
2.66407e-06
2.66223e-06
2.66124e-06
2.66131e-06
2.66136e-06
2.66577e-06
2.6652e-06
2.66408e-06
2.66162e-06
2.65842e-06
2.65804e-06
2.65805e-06
2.65845e-06
2.66377e-06
2.66286e-06
2.66224e-06
2.6584e-06
2.65826e-06
2.65816e-06
2.65817e-06
2.65828e-06
2.65843e-06
2.66356e-06
2.66643e-06
2.66192e-06
2.66125e-06
2.65803e-06
2.65816e-06
2.6582e-06
2.65821e-06
2.65818e-06
2.65807e-06
2.66246e-06
2.664e-06
2.66025e-06
2.66128e-06
2.65804e-06
2.65816e-06
2.65821e-06
2.65821e-06
2.65819e-06
2.65808e-06
2.66247e-06
2.66022e-06
2.66131e-06
2.65843e-06
2.65827e-06
2.65817e-06
2.65818e-06
2.65829e-06
2.65848e-06
2.66285e-06
2.66262e-06
2.66571e-06
2.66374e-06
2.65843e-06
2.65805e-06
2.65806e-06
2.65843e-06
2.66442e-06
2.66384e-06
2.66684e-06
2.66519e-06
2.66287e-06
2.66356e-06
2.66245e-06
2.66244e-06
2.6628e-06
2.66373e-06
2.6682e-06
2.66647e-06
2.66408e-06
2.66016e-06
2.6625e-06
2.66677e-06
2.64026e-06
2.6405e-06
2.64038e-06
2.63775e-06
2.63774e-06
2.63739e-06
2.6379e-06
2.64242e-06
2.64184e-06
2.64036e-06
2.63763e-06
2.63516e-06
2.63478e-06
2.63481e-06
2.63534e-06
2.64281e-06
2.63919e-06
2.63773e-06
2.63513e-06
2.634e-06
2.63391e-06
2.63394e-06
2.63409e-06
2.63532e-06
2.64332e-06
2.64288e-06
2.64036e-06
2.63775e-06
2.63474e-06
2.6339e-06
2.63379e-06
2.63381e-06
2.63395e-06
2.6348e-06
2.6422e-06
2.64105e-06
2.64026e-06
2.63736e-06
2.63479e-06
2.63393e-06
2.6338e-06
2.63381e-06
2.63397e-06
2.63486e-06
2.64155e-06
2.6369e-06
2.63784e-06
2.63527e-06
2.63407e-06
2.63395e-06
2.63395e-06
2.63411e-06
2.6354e-06
2.64298e-06
2.64195e-06
2.64244e-06
2.6428e-06
2.63531e-06
2.63482e-06
2.63481e-06
2.6353e-06
2.64541e-06
2.64166e-06
2.64224e-06
2.64187e-06
2.63923e-06
2.64334e-06
2.6422e-06
2.64152e-06
2.64294e-06
2.64174e-06
2.64403e-06
2.64287e-06
2.64094e-06
2.63691e-06
2.64185e-06
2.64226e-06
2.6118e-06
2.61193e-06
2.61234e-06
2.6093e-06
2.60925e-06
2.60881e-06
2.6095e-06
2.61461e-06
2.61373e-06
2.61222e-06
2.60846e-06
2.60491e-06
2.60475e-06
2.60475e-06
2.60497e-06
2.61444e-06
2.61139e-06
2.60928e-06
2.6049e-06
2.60472e-06
2.6047e-06
2.60471e-06
2.60475e-06
2.60496e-06
2.61622e-06
2.61497e-06
2.61179e-06
2.60925e-06
2.60473e-06
2.60469e-06
2.60471e-06
2.60471e-06
2.60471e-06
2.60476e-06
2.61553e-06
2.61272e-06
2.61184e-06
2.6088e-06
2.60475e-06
2.6047e-06
2.60471e-06
2.60471e-06
2.60471e-06
2.60476e-06
2.61487e-06
2.6087e-06
2.60948e-06
2.60497e-06
2.60475e-06
2.60471e-06
2.60471e-06
2.60475e-06
2.60498e-06
2.61617e-06
2.61362e-06
2.61465e-06
2.61444e-06
2.60497e-06
2.60475e-06
2.60475e-06
2.60497e-06
2.61848e-06
2.61392e-06
2.61445e-06
2.6138e-06
2.61145e-06
2.61624e-06
2.61554e-06
2.61488e-06
2.6162e-06
2.61408e-06
2.61586e-06
2.61496e-06
2.61266e-06
2.60871e-06
2.61362e-06
2.61452e-06
2.58478e-06
2.58498e-06
2.58488e-06
2.58164e-06
2.58164e-06
2.58114e-06
2.58197e-06
2.58734e-06
2.58644e-06
2.58492e-06
2.5796e-06
2.57577e-06
2.57575e-06
2.57576e-06
2.57579e-06
2.58622e-06
2.58419e-06
2.58163e-06
2.57576e-06
2.57575e-06
2.57576e-06
2.57576e-06
2.57576e-06
2.5758e-06
2.58917e-06
2.58788e-06
2.58492e-06
2.58165e-06
2.57575e-06
2.57576e-06
2.57578e-06
2.57578e-06
2.57577e-06
2.57576e-06
2.58917e-06
2.58573e-06
2.585e-06
2.58114e-06
2.57575e-06
2.57577e-06
2.57578e-06
2.57578e-06
2.57577e-06
2.57576e-06
2.58864e-06
2.58173e-06
2.58198e-06
2.5758e-06
2.57577e-06
2.57577e-06
2.57577e-06
2.57577e-06
2.5758e-06
2.58947e-06
2.58663e-06
2.58735e-06
2.58621e-06
2.5758e-06
2.57576e-06
2.57576e-06
2.5758e-06
2.59144e-06
2.58667e-06
2.58726e-06
2.58643e-06
2.58417e-06
2.58917e-06
2.58918e-06
2.58868e-06
2.58954e-06
2.58691e-06
2.58857e-06
2.58785e-06
2.58573e-06
2.58175e-06
2.58666e-06
2.58735e-06
2.55702e-06
2.55726e-06
2.55689e-06
2.55361e-06
2.55359e-06
2.55306e-06
2.55397e-06
2.55946e-06
2.55853e-06
2.55692e-06
2.55115e-06
2.5472e-06
2.54721e-06
2.54721e-06
2.54721e-06
2.55791e-06
2.55625e-06
2.5536e-06
2.54719e-06
2.5472e-06
2.54721e-06
2.54722e-06
2.54721e-06
2.54721e-06
2.56125e-06
2.56002e-06
2.55712e-06
2.55359e-06
2.5472e-06
2.54721e-06
2.54722e-06
2.54722e-06
2.54722e-06
2.54721e-06
2.56147e-06
2.55791e-06
2.55725e-06
2.55305e-06
2.54721e-06
2.54722e-06
2.54723e-06
2.54723e-06
2.54722e-06
2.54722e-06
2.56099e-06
2.55395e-06
2.55396e-06
2.54726e-06
2.54724e-06
2.54723e-06
2.54723e-06
2.54722e-06
2.54722e-06
2.56169e-06
2.55882e-06
2.55949e-06
2.55795e-06
2.54724e-06
2.54723e-06
2.54723e-06
2.54723e-06
2.56357e-06
2.55877e-06
2.55945e-06
2.55856e-06
2.5563e-06
2.56128e-06
2.5615e-06
2.56102e-06
2.56174e-06
2.55901e-06
2.56067e-06
2.56001e-06
2.55793e-06
2.55398e-06
2.55883e-06
2.55949e-06
2.52881e-06
2.52905e-06
2.52853e-06
2.52535e-06
2.52533e-06
2.52479e-06
2.52574e-06
2.53125e-06
2.53031e-06
2.52867e-06
2.52282e-06
2.51881e-06
2.5188e-06
2.5188e-06
2.51881e-06
2.52958e-06
2.52805e-06
2.52534e-06
2.5188e-06
2.51881e-06
2.51881e-06
2.51881e-06
2.51881e-06
2.51881e-06
2.53303e-06
2.53179e-06
2.52897e-06
2.52534e-06
2.51882e-06
2.51882e-06
2.51882e-06
2.51882e-06
2.51881e-06
2.51881e-06
2.5333e-06
2.52971e-06
2.52899e-06
2.52479e-06
2.51884e-06
2.51883e-06
2.51882e-06
2.51882e-06
2.51882e-06
2.51881e-06
2.53283e-06
2.52577e-06
2.52573e-06
2.51884e-06
2.51883e-06
2.51882e-06
2.51882e-06
2.51881e-06
2.51881e-06
2.5335e-06
2.53062e-06
2.5313e-06
2.52963e-06
2.51883e-06
2.51882e-06
2.51882e-06
2.51881e-06
2.53538e-06
2.53058e-06
2.53124e-06
2.53038e-06
2.52812e-06
2.53308e-06
2.53336e-06
2.53288e-06
2.53356e-06
2.5308e-06
2.53243e-06
2.53184e-06
2.52974e-06
2.52581e-06
2.53064e-06
2.53128e-06
2.50053e-06
2.50077e-06
2.50023e-06
2.49705e-06
2.49704e-06
2.49649e-06
2.49743e-06
2.50295e-06
2.50197e-06
2.5004e-06
2.49442e-06
2.49046e-06
2.49046e-06
2.49045e-06
2.49046e-06
2.50125e-06
2.49976e-06
2.49703e-06
2.49045e-06
2.49045e-06
2.49046e-06
2.49046e-06
2.49046e-06
2.49046e-06
2.50474e-06
2.50349e-06
2.50052e-06
2.49703e-06
2.49045e-06
2.49045e-06
2.49046e-06
2.49046e-06
2.49046e-06
2.49046e-06
2.50502e-06
2.50141e-06
2.50079e-06
2.49649e-06
2.49045e-06
2.49046e-06
2.49046e-06
2.49046e-06
2.49046e-06
2.49046e-06
2.50455e-06
2.49746e-06
2.49742e-06
2.49046e-06
2.49046e-06
2.49046e-06
2.49046e-06
2.49046e-06
2.49046e-06
2.5052e-06
2.50231e-06
2.50296e-06
2.50127e-06
2.49046e-06
2.49045e-06
2.49045e-06
2.49046e-06
2.50707e-06
2.50228e-06
2.50293e-06
2.50204e-06
2.49977e-06
2.50476e-06
2.50506e-06
2.50459e-06
2.50526e-06
2.50249e-06
2.50413e-06
2.50353e-06
2.50144e-06
2.4975e-06
2.50235e-06
2.50296e-06
2.47221e-06
2.47245e-06
2.4719e-06
2.46873e-06
2.46871e-06
2.46815e-06
2.4691e-06
2.47463e-06
2.47365e-06
2.47206e-06
2.46608e-06
2.46211e-06
2.46211e-06
2.46211e-06
2.46211e-06
2.47292e-06
2.47145e-06
2.46865e-06
2.46212e-06
2.46211e-06
2.46211e-06
2.46211e-06
2.4621e-06
2.46211e-06
2.4764e-06
2.47517e-06
2.47226e-06
2.46878e-06
2.4621e-06
2.4621e-06
2.4621e-06
2.4621e-06
2.4621e-06
2.4621e-06
2.47669e-06
2.47309e-06
2.47235e-06
2.46817e-06
2.46209e-06
2.4621e-06
2.4621e-06
2.4621e-06
2.4621e-06
2.4621e-06
2.47622e-06
2.46914e-06
2.46906e-06
2.46209e-06
2.4621e-06
2.4621e-06
2.4621e-06
2.4621e-06
2.4621e-06
2.47688e-06
2.47399e-06
2.47462e-06
2.4729e-06
2.4621e-06
2.4621e-06
2.4621e-06
2.4621e-06
2.47875e-06
2.47397e-06
2.4746e-06
2.47366e-06
2.4714e-06
2.4764e-06
2.47671e-06
2.47624e-06
2.47691e-06
2.47416e-06
2.47581e-06
2.47517e-06
2.47309e-06
2.46915e-06
2.47399e-06
2.47462e-06
2.44387e-06
2.44411e-06
2.44357e-06
2.4404e-06
2.44037e-06
2.43981e-06
2.44076e-06
2.44629e-06
2.44531e-06
2.44374e-06
2.43775e-06
2.43377e-06
2.43377e-06
2.43376e-06
2.43376e-06
2.44458e-06
2.4431e-06
2.4404e-06
2.43377e-06
2.43377e-06
2.43376e-06
2.43376e-06
2.43376e-06
2.43376e-06
2.44806e-06
2.44683e-06
2.44399e-06
2.4404e-06
2.43377e-06
2.43376e-06
2.43376e-06
2.43376e-06
2.43376e-06
2.43376e-06
2.44835e-06
2.44475e-06
2.44394e-06
2.4398e-06
2.43375e-06
2.43376e-06
2.43376e-06
2.43376e-06
2.43376e-06
2.43376e-06
2.44788e-06
2.44081e-06
2.44068e-06
2.43375e-06
2.43375e-06
2.43375e-06
2.43375e-06
2.43375e-06
2.43375e-06
2.44853e-06
2.44565e-06
2.44625e-06
2.44454e-06
2.43375e-06
2.43375e-06
2.43375e-06
2.43375e-06
2.45041e-06
2.44562e-06
2.44626e-06
2.44529e-06
2.44304e-06
2.44806e-06
2.44837e-06
2.4479e-06
2.44857e-06
2.44582e-06
2.44747e-06
2.44683e-06
2.44474e-06
2.44081e-06
2.44565e-06
2.44628e-06
2.41552e-06
2.41578e-06
2.41524e-06
2.41204e-06
2.41202e-06
2.41146e-06
2.41242e-06
2.41795e-06
2.41696e-06
2.41538e-06
2.40942e-06
2.40542e-06
2.40542e-06
2.40542e-06
2.40541e-06
2.41624e-06
2.41476e-06
2.41199e-06
2.40543e-06
2.40542e-06
2.40542e-06
2.40541e-06
2.40541e-06
2.40541e-06
2.41971e-06
2.41848e-06
2.41547e-06
2.41205e-06
2.40542e-06
2.40542e-06
2.40541e-06
2.40541e-06
2.40541e-06
2.40541e-06
2.42e-06
2.4164e-06
2.4157e-06
2.41146e-06
2.40541e-06
2.40541e-06
2.40541e-06
2.40541e-06
2.40541e-06
2.40541e-06
2.41954e-06
2.41247e-06
2.41237e-06
2.40541e-06
2.4054e-06
2.40541e-06
2.40541e-06
2.40541e-06
2.40541e-06
2.42019e-06
2.4173e-06
2.41793e-06
2.41621e-06
2.4054e-06
2.40541e-06
2.40541e-06
2.40541e-06
2.42207e-06
2.41728e-06
2.41792e-06
2.41697e-06
2.41474e-06
2.41972e-06
2.42001e-06
2.41955e-06
2.42023e-06
2.41748e-06
2.41913e-06
2.41848e-06
2.4164e-06
2.41247e-06
2.41732e-06
2.41794e-06
2.38717e-06
2.38741e-06
2.38688e-06
2.38368e-06
2.38367e-06
2.38311e-06
2.38406e-06
2.3896e-06
2.38862e-06
2.38703e-06
2.38106e-06
2.37706e-06
2.37706e-06
2.37706e-06
2.37706e-06
2.38789e-06
2.38641e-06
2.38368e-06
2.37706e-06
2.37706e-06
2.37706e-06
2.37706e-06
2.37706e-06
2.37706e-06
2.39137e-06
2.39015e-06
2.38715e-06
2.38367e-06
2.37706e-06
2.37706e-06
2.37706e-06
2.37706e-06
2.37706e-06
2.37706e-06
2.39166e-06
2.38806e-06
2.38745e-06
2.38311e-06
2.37706e-06
2.37706e-06
2.37706e-06
2.37706e-06
2.37706e-06
2.37706e-06
2.39119e-06
2.38411e-06
2.38404e-06
2.37706e-06
2.37706e-06
2.37706e-06
2.37706e-06
2.37706e-06
2.37706e-06
2.39184e-06
2.38895e-06
2.38959e-06
2.38787e-06
2.37706e-06
2.37706e-06
2.37706e-06
2.37706e-06
2.39371e-06
2.38893e-06
2.38957e-06
2.38863e-06
2.3864e-06
2.39139e-06
2.39168e-06
2.39122e-06
2.39189e-06
2.38912e-06
2.39078e-06
2.39015e-06
2.38807e-06
2.38414e-06
2.38895e-06
2.38958e-06
2.35881e-06
2.35906e-06
2.35852e-06
2.35533e-06
2.35531e-06
2.35475e-06
2.35571e-06
2.36124e-06
2.36026e-06
2.35867e-06
2.3527e-06
2.34871e-06
2.34871e-06
2.34871e-06
2.34871e-06
2.35954e-06
2.35806e-06
2.35533e-06
2.34871e-06
2.34871e-06
2.34871e-06
2.34871e-06
2.34871e-06
2.34872e-06
2.36302e-06
2.36179e-06
2.35891e-06
2.35534e-06
2.34871e-06
2.34871e-06
2.34872e-06
2.34872e-06
2.34872e-06
2.34872e-06
2.36331e-06
2.35971e-06
2.35912e-06
2.35479e-06
2.34872e-06
2.34872e-06
2.34872e-06
2.34872e-06
2.34872e-06
2.34872e-06
2.36285e-06
2.35577e-06
2.35569e-06
2.34873e-06
2.34873e-06
2.34872e-06
2.34872e-06
2.34872e-06
2.34872e-06
2.36349e-06
2.36061e-06
2.36126e-06
2.35955e-06
2.34873e-06
2.34873e-06
2.34873e-06
2.34872e-06
2.36539e-06
2.36059e-06
2.36123e-06
2.36029e-06
2.35807e-06
2.36305e-06
2.36333e-06
2.36288e-06
2.36356e-06
2.3608e-06
2.36244e-06
2.3618e-06
2.35972e-06
2.3558e-06
2.36064e-06
2.36126e-06
2.33047e-06
2.33071e-06
2.33015e-06
2.32698e-06
2.32696e-06
2.32641e-06
2.32736e-06
2.33289e-06
2.33191e-06
2.33031e-06
2.32435e-06
2.32035e-06
2.32036e-06
2.32036e-06
2.32036e-06
2.33119e-06
2.32971e-06
2.32696e-06
2.32035e-06
2.32036e-06
2.32036e-06
2.32036e-06
2.32037e-06
2.32037e-06
2.33467e-06
2.33344e-06
2.33063e-06
2.32695e-06
2.32036e-06
2.32036e-06
2.32037e-06
2.32037e-06
2.32037e-06
2.32037e-06
2.33496e-06
2.33137e-06
2.33061e-06
2.32641e-06
2.32037e-06
2.32037e-06
2.32037e-06
2.32037e-06
2.32037e-06
2.32037e-06
2.3345e-06
2.32742e-06
2.32735e-06
2.32038e-06
2.32038e-06
2.32037e-06
2.32037e-06
2.32037e-06
2.32037e-06
2.33515e-06
2.33227e-06
2.33294e-06
2.33121e-06
2.32038e-06
2.32038e-06
2.32037e-06
2.32037e-06
2.33704e-06
2.33225e-06
2.33288e-06
2.33197e-06
2.32976e-06
2.33473e-06
2.33501e-06
2.33455e-06
2.33521e-06
2.33245e-06
2.3341e-06
2.33348e-06
2.33138e-06
2.32744e-06
2.3323e-06
2.33293e-06
2.30211e-06
2.30236e-06
2.30181e-06
2.29864e-06
2.29862e-06
2.29806e-06
2.29902e-06
2.30455e-06
2.30357e-06
2.30198e-06
2.296e-06
2.29201e-06
2.29202e-06
2.29202e-06
2.29202e-06
2.30284e-06
2.30137e-06
2.29863e-06
2.29202e-06
2.29202e-06
2.29202e-06
2.29202e-06
2.29202e-06
2.29202e-06
2.30632e-06
2.3051e-06
2.3023e-06
2.29863e-06
2.29202e-06
2.29202e-06
2.29202e-06
2.29202e-06
2.29202e-06
2.29202e-06
2.30662e-06
2.30302e-06
2.30248e-06
2.29807e-06
2.29202e-06
2.29203e-06
2.29202e-06
2.29202e-06
2.29202e-06
2.29203e-06
2.30616e-06
2.29908e-06
2.29896e-06
2.29203e-06
2.29203e-06
2.29203e-06
2.29202e-06
2.29203e-06
2.29203e-06
2.3068e-06
2.30392e-06
2.30457e-06
2.30286e-06
2.29203e-06
2.29202e-06
2.29202e-06
2.29202e-06
2.30869e-06
2.3039e-06
2.30454e-06
2.3036e-06
2.30136e-06
2.30635e-06
2.30666e-06
2.30619e-06
2.30686e-06
2.3041e-06
2.30575e-06
2.30512e-06
2.30303e-06
2.2991e-06
2.30395e-06
2.30458e-06
2.27378e-06
2.27404e-06
2.27347e-06
2.2703e-06
2.27027e-06
2.26972e-06
2.27068e-06
2.2762e-06
2.27522e-06
2.27362e-06
2.26765e-06
2.26367e-06
2.26367e-06
2.26367e-06
2.26368e-06
2.2745e-06
2.27302e-06
2.27026e-06
2.26367e-06
2.26367e-06
2.26367e-06
2.26367e-06
2.26368e-06
2.26368e-06
2.27798e-06
2.27675e-06
2.27393e-06
2.27029e-06
2.26368e-06
2.26367e-06
2.26367e-06
2.26368e-06
2.26368e-06
2.26368e-06
2.27827e-06
2.27467e-06
2.27397e-06
2.26974e-06
2.26367e-06
2.26368e-06
2.26368e-06
2.26368e-06
2.26368e-06
2.26368e-06
2.27781e-06
2.27073e-06
2.27066e-06
2.26367e-06
2.26368e-06
2.26368e-06
2.26368e-06
2.26368e-06
2.26368e-06
2.27846e-06
2.27558e-06
2.27622e-06
2.27447e-06
2.26368e-06
2.26368e-06
2.26367e-06
2.26367e-06
2.28035e-06
2.27555e-06
2.27619e-06
2.27525e-06
2.27301e-06
2.278e-06
2.27829e-06
2.27783e-06
2.2785e-06
2.27575e-06
2.27741e-06
2.27676e-06
2.27468e-06
2.27074e-06
2.2756e-06
2.27623e-06
2.24543e-06
2.24567e-06
2.24512e-06
2.24195e-06
2.24193e-06
2.24137e-06
2.24233e-06
2.24786e-06
2.24688e-06
2.24528e-06
2.23931e-06
2.23532e-06
2.23532e-06
2.23533e-06
2.23533e-06
2.24615e-06
2.24468e-06
2.24192e-06
2.23532e-06
2.23532e-06
2.23533e-06
2.23533e-06
2.23533e-06
2.23533e-06
2.24963e-06
2.2484e-06
2.24546e-06
2.24193e-06
2.23532e-06
2.23532e-06
2.23533e-06
2.23533e-06
2.23533e-06
2.23533e-06
2.24993e-06
2.24633e-06
2.2457e-06
2.24139e-06
2.23532e-06
2.23532e-06
2.23533e-06
2.23533e-06
2.23533e-06
2.23534e-06
2.24947e-06
2.24238e-06
2.24231e-06
2.23532e-06
2.23532e-06
2.23533e-06
2.23533e-06
2.23534e-06
2.23534e-06
2.25012e-06
2.24723e-06
2.24787e-06
2.24614e-06
2.23532e-06
2.23533e-06
2.23534e-06
2.23534e-06
2.25199e-06
2.2472e-06
2.24784e-06
2.24688e-06
2.24466e-06
2.24964e-06
2.24992e-06
2.24949e-06
2.25015e-06
2.24741e-06
2.24904e-06
2.24841e-06
2.24634e-06
2.24238e-06
2.2472e-06
2.24785e-06
2.21708e-06
2.21732e-06
2.21678e-06
2.2136e-06
2.21358e-06
2.21302e-06
2.21398e-06
2.21951e-06
2.21853e-06
2.21694e-06
2.21096e-06
2.20698e-06
2.20698e-06
2.20698e-06
2.20698e-06
2.2178e-06
2.21633e-06
2.21358e-06
2.20698e-06
2.20698e-06
2.20698e-06
2.20698e-06
2.20698e-06
2.20698e-06
2.22129e-06
2.22006e-06
2.21709e-06
2.21358e-06
2.20697e-06
2.20698e-06
2.20698e-06
2.20698e-06
2.20698e-06
2.20698e-06
2.22159e-06
2.21798e-06
2.21734e-06
2.21302e-06
2.20697e-06
2.20697e-06
2.20698e-06
2.20698e-06
2.20699e-06
2.20699e-06
2.22113e-06
2.21404e-06
2.21396e-06
2.20697e-06
2.20697e-06
2.20698e-06
2.20699e-06
2.20699e-06
2.20699e-06
2.22178e-06
2.21889e-06
2.21951e-06
2.21778e-06
2.20697e-06
2.20697e-06
2.20699e-06
2.207e-06
2.22367e-06
2.21888e-06
2.21951e-06
2.21853e-06
2.2163e-06
2.22128e-06
2.22153e-06
2.22114e-06
2.22181e-06
2.21909e-06
2.22071e-06
2.22005e-06
2.21804e-06
2.21398e-06
2.21888e-06
2.21954e-06
2.18874e-06
2.18899e-06
2.18843e-06
2.18526e-06
2.18523e-06
2.18468e-06
2.18563e-06
2.19116e-06
2.19018e-06
2.1886e-06
2.18261e-06
2.17863e-06
2.17863e-06
2.17863e-06
2.17863e-06
2.18946e-06
2.18798e-06
2.18523e-06
2.17863e-06
2.17863e-06
2.17863e-06
2.17863e-06
2.17863e-06
2.17863e-06
2.19294e-06
2.19171e-06
2.18867e-06
2.18522e-06
2.17863e-06
2.17863e-06
2.17863e-06
2.17863e-06
2.17863e-06
2.17864e-06
2.19323e-06
2.18963e-06
2.18889e-06
2.18467e-06
2.17863e-06
2.17863e-06
2.17863e-06
2.17863e-06
2.17864e-06
2.17864e-06
2.19277e-06
2.18569e-06
2.1856e-06
2.17862e-06
2.17862e-06
2.17863e-06
2.17864e-06
2.17864e-06
2.17864e-06
2.19342e-06
2.19054e-06
2.19115e-06
2.18944e-06
2.17862e-06
2.17863e-06
2.17864e-06
2.17865e-06
2.19532e-06
2.19051e-06
2.19115e-06
2.19017e-06
2.18796e-06
2.19294e-06
2.1932e-06
2.19277e-06
2.19348e-06
2.19074e-06
2.19235e-06
2.19168e-06
2.18971e-06
2.18571e-06
2.19053e-06
2.19118e-06
2.16039e-06
2.16063e-06
2.16009e-06
2.15691e-06
2.15689e-06
2.15632e-06
2.15728e-06
2.16281e-06
2.16183e-06
2.16025e-06
2.15427e-06
2.15028e-06
2.15028e-06
2.15028e-06
2.15028e-06
2.1611e-06
2.15963e-06
2.15688e-06
2.15029e-06
2.15028e-06
2.15028e-06
2.15028e-06
2.15028e-06
2.15028e-06
2.16458e-06
2.16336e-06
2.1604e-06
2.15689e-06
2.15029e-06
2.15028e-06
2.15028e-06
2.15028e-06
2.15028e-06
2.15028e-06
2.16487e-06
2.16127e-06
2.16059e-06
2.15632e-06
2.15029e-06
2.15028e-06
2.15028e-06
2.15028e-06
2.15028e-06
2.15028e-06
2.16441e-06
2.15733e-06
2.15727e-06
2.15029e-06
2.15029e-06
2.15028e-06
2.15028e-06
2.15027e-06
2.15027e-06
2.16506e-06
2.16217e-06
2.16282e-06
2.1611e-06
2.1503e-06
2.15028e-06
2.15028e-06
2.15027e-06
2.16694e-06
2.16216e-06
2.16279e-06
2.16184e-06
2.15961e-06
2.16458e-06
2.16494e-06
2.16448e-06
2.16512e-06
2.16235e-06
2.164e-06
2.16334e-06
2.16125e-06
2.15739e-06
2.1622e-06
2.16283e-06
2.13204e-06
2.13227e-06
2.13174e-06
2.12856e-06
2.12854e-06
2.12798e-06
2.12892e-06
2.13446e-06
2.13348e-06
2.1319e-06
2.12592e-06
2.12193e-06
2.12193e-06
2.12193e-06
2.12193e-06
2.13275e-06
2.13128e-06
2.12853e-06
2.12193e-06
2.12193e-06
2.12193e-06
2.12193e-06
2.12193e-06
2.12193e-06
2.13624e-06
2.13501e-06
2.13206e-06
2.12855e-06
2.12193e-06
2.12193e-06
2.12193e-06
2.12193e-06
2.12193e-06
2.12193e-06
2.13653e-06
2.13292e-06
2.13226e-06
2.12798e-06
2.12194e-06
2.12194e-06
2.12194e-06
2.12193e-06
2.12193e-06
2.12193e-06
2.13606e-06
2.12898e-06
2.12894e-06
2.12194e-06
2.12194e-06
2.12194e-06
2.12193e-06
2.12193e-06
2.12193e-06
2.13671e-06
2.13382e-06
2.13449e-06
2.13276e-06
2.12195e-06
2.12194e-06
2.12193e-06
2.12193e-06
2.13858e-06
2.13379e-06
2.13443e-06
2.1335e-06
2.13128e-06
2.13626e-06
2.13663e-06
2.13611e-06
2.13676e-06
2.134e-06
2.13563e-06
2.13503e-06
2.13285e-06
2.12912e-06
2.13382e-06
2.13443e-06
2.10369e-06
2.1039e-06
2.10339e-06
2.10021e-06
2.10019e-06
2.09963e-06
2.10057e-06
2.10612e-06
2.10514e-06
2.10355e-06
2.09757e-06
2.09359e-06
2.09359e-06
2.09358e-06
2.09359e-06
2.10441e-06
2.10293e-06
2.10019e-06
2.09359e-06
2.09359e-06
2.09359e-06
2.09359e-06
2.09359e-06
2.09359e-06
2.10789e-06
2.10666e-06
2.10366e-06
2.10019e-06
2.09359e-06
2.09359e-06
2.09359e-06
2.09359e-06
2.09359e-06
2.09359e-06
2.10819e-06
2.10459e-06
2.10394e-06
2.09963e-06
2.09359e-06
2.09359e-06
2.09359e-06
2.09359e-06
2.09359e-06
2.09359e-06
2.10772e-06
2.10064e-06
2.10059e-06
2.09358e-06
2.09358e-06
2.09358e-06
2.09359e-06
2.0936e-06
2.09359e-06
2.10837e-06
2.10549e-06
2.10615e-06
2.10441e-06
2.09358e-06
2.09359e-06
2.09359e-06
2.0936e-06
2.11025e-06
2.10546e-06
2.10609e-06
2.10515e-06
2.10292e-06
2.10789e-06
2.10815e-06
2.10772e-06
2.10842e-06
2.10567e-06
2.1073e-06
2.10667e-06
2.10465e-06
2.10058e-06
2.10545e-06
2.1061e-06
2.07534e-06
2.07557e-06
2.07504e-06
2.07186e-06
2.07184e-06
2.07128e-06
2.07222e-06
2.07777e-06
2.07679e-06
2.0752e-06
2.06922e-06
2.06524e-06
2.06524e-06
2.06524e-06
2.06524e-06
2.07606e-06
2.07459e-06
2.07184e-06
2.06524e-06
2.06524e-06
2.06524e-06
2.06524e-06
2.06524e-06
2.06524e-06
2.07954e-06
2.07832e-06
2.07536e-06
2.07184e-06
2.06524e-06
2.06524e-06
2.06524e-06
2.06524e-06
2.06524e-06
2.06524e-06
2.07984e-06
2.07624e-06
2.07559e-06
2.07129e-06
2.06524e-06
2.06524e-06
2.06524e-06
2.06524e-06
2.06524e-06
2.06524e-06
2.07937e-06
2.07229e-06
2.07224e-06
2.06523e-06
2.06524e-06
2.06524e-06
2.06524e-06
2.06525e-06
2.06524e-06
2.08003e-06
2.07714e-06
2.07778e-06
2.07606e-06
2.06523e-06
2.06524e-06
2.06525e-06
2.06525e-06
2.0819e-06
2.07712e-06
2.07775e-06
2.07679e-06
2.07458e-06
2.07956e-06
2.07982e-06
2.07937e-06
2.08009e-06
2.07734e-06
2.07895e-06
2.07831e-06
2.07632e-06
2.07231e-06
2.07713e-06
2.07778e-06
2.04699e-06
2.0472e-06
2.0467e-06
2.04352e-06
2.04349e-06
2.04293e-06
2.04387e-06
2.04942e-06
2.04844e-06
2.04686e-06
2.04087e-06
2.03689e-06
2.03689e-06
2.03689e-06
2.03689e-06
2.0477e-06
2.04624e-06
2.0435e-06
2.03689e-06
2.03689e-06
2.03689e-06
2.03689e-06
2.03689e-06
2.03689e-06
2.05119e-06
2.04996e-06
2.04695e-06
2.0435e-06
2.03689e-06
2.03689e-06
2.03689e-06
2.03689e-06
2.03689e-06
2.03689e-06
2.05148e-06
2.04788e-06
2.04721e-06
2.04293e-06
2.03689e-06
2.03689e-06
2.03689e-06
2.03689e-06
2.03688e-06
2.03688e-06
2.05101e-06
2.04393e-06
2.04389e-06
2.0369e-06
2.0369e-06
2.03689e-06
2.03688e-06
2.03688e-06
2.03688e-06
2.05166e-06
2.04878e-06
2.04943e-06
2.0477e-06
2.0369e-06
2.03689e-06
2.03688e-06
2.03688e-06
2.05354e-06
2.04875e-06
2.04939e-06
2.04845e-06
2.04622e-06
2.05119e-06
2.05153e-06
2.05109e-06
2.05173e-06
2.04895e-06
2.0506e-06
2.04994e-06
2.04786e-06
2.04401e-06
2.04881e-06
2.04941e-06
2.01865e-06
2.01887e-06
2.01835e-06
2.01517e-06
2.01515e-06
2.01459e-06
2.01554e-06
2.02108e-06
2.02009e-06
2.01851e-06
2.01253e-06
2.00854e-06
2.00854e-06
2.00854e-06
2.00854e-06
2.01936e-06
2.01788e-06
2.01515e-06
2.00854e-06
2.00854e-06
2.00854e-06
2.00854e-06
2.00854e-06
2.00854e-06
2.02284e-06
2.02161e-06
2.01864e-06
2.01515e-06
2.00854e-06
2.00854e-06
2.00854e-06
2.00854e-06
2.00854e-06
2.00854e-06
2.02313e-06
2.01953e-06
2.0189e-06
2.01459e-06
2.00854e-06
2.00854e-06
2.00854e-06
2.00854e-06
2.00853e-06
2.00853e-06
2.02266e-06
2.01558e-06
2.01555e-06
2.00855e-06
2.00855e-06
2.00854e-06
2.00854e-06
2.00853e-06
2.00853e-06
2.0233e-06
2.02042e-06
2.0211e-06
2.01935e-06
2.00855e-06
2.00855e-06
2.00853e-06
2.00853e-06
2.02519e-06
2.02038e-06
2.02103e-06
2.02011e-06
2.01788e-06
2.02284e-06
2.02316e-06
2.02273e-06
2.02336e-06
2.0206e-06
2.02223e-06
2.02164e-06
2.01944e-06
2.01569e-06
2.02042e-06
2.02102e-06
1.9903e-06
1.99058e-06
1.99001e-06
1.98683e-06
1.9868e-06
1.98625e-06
1.98719e-06
1.99273e-06
1.99174e-06
1.99016e-06
1.98418e-06
1.9802e-06
1.98019e-06
1.98019e-06
1.98019e-06
1.99102e-06
1.98954e-06
1.9868e-06
1.98019e-06
1.9802e-06
1.98019e-06
1.98019e-06
1.98019e-06
1.98019e-06
1.99449e-06
1.99326e-06
1.9903e-06
1.9868e-06
1.9802e-06
1.98019e-06
1.98019e-06
1.98019e-06
1.98019e-06
1.98019e-06
1.99478e-06
1.99118e-06
1.99055e-06
1.98624e-06
1.9802e-06
1.98019e-06
1.98019e-06
1.98019e-06
1.98019e-06
1.98019e-06
1.99432e-06
1.98724e-06
1.98719e-06
1.9802e-06
1.98019e-06
1.98019e-06
1.98019e-06
1.98018e-06
1.98018e-06
1.99497e-06
1.99208e-06
1.99274e-06
1.99099e-06
1.98019e-06
1.98019e-06
1.98019e-06
1.98018e-06
1.99684e-06
1.99205e-06
1.99269e-06
1.99175e-06
1.98951e-06
1.99449e-06
1.99488e-06
1.99436e-06
1.99502e-06
1.99226e-06
1.99389e-06
1.99324e-06
1.99115e-06
1.98732e-06
1.99211e-06
1.99274e-06
1.96196e-06
1.96221e-06
1.96165e-06
1.95847e-06
1.95845e-06
1.9579e-06
1.95885e-06
1.96438e-06
1.9634e-06
1.96181e-06
1.95582e-06
1.95185e-06
1.95185e-06
1.95185e-06
1.95185e-06
1.96267e-06
1.9612e-06
1.95844e-06
1.95185e-06
1.95185e-06
1.95185e-06
1.95185e-06
1.95185e-06
1.95185e-06
1.96615e-06
1.96492e-06
1.96194e-06
1.95844e-06
1.95184e-06
1.95185e-06
1.95185e-06
1.95185e-06
1.95185e-06
1.95184e-06
1.96644e-06
1.96284e-06
1.9622e-06
1.9579e-06
1.95185e-06
1.95185e-06
1.95184e-06
1.95184e-06
1.95184e-06
1.95184e-06
1.96597e-06
1.95889e-06
1.95883e-06
1.95185e-06
1.95184e-06
1.95184e-06
1.95184e-06
1.95184e-06
1.95184e-06
1.96662e-06
1.96373e-06
1.96439e-06
1.96262e-06
1.95184e-06
1.95184e-06
1.95185e-06
1.95185e-06
1.96851e-06
1.9637e-06
1.96435e-06
1.9634e-06
1.96116e-06
1.96615e-06
1.96646e-06
1.96599e-06
1.96666e-06
1.96392e-06
1.96555e-06
1.96492e-06
1.96283e-06
1.95891e-06
1.96376e-06
1.96438e-06
1.93362e-06
1.93385e-06
1.93332e-06
1.93015e-06
1.93012e-06
1.92955e-06
1.93051e-06
1.93603e-06
1.93505e-06
1.93347e-06
1.92747e-06
1.92351e-06
1.92351e-06
1.92351e-06
1.9235e-06
1.93433e-06
1.93285e-06
1.93007e-06
1.92351e-06
1.92351e-06
1.92351e-06
1.9235e-06
1.9235e-06
1.9235e-06
1.9378e-06
1.93657e-06
1.93372e-06
1.93017e-06
1.9235e-06
1.9235e-06
1.9235e-06
1.9235e-06
1.9235e-06
1.9235e-06
1.93809e-06
1.9345e-06
1.93377e-06
1.92955e-06
1.9235e-06
1.9235e-06
1.9235e-06
1.9235e-06
1.9235e-06
1.9235e-06
1.93763e-06
1.93055e-06
1.93046e-06
1.92349e-06
1.92349e-06
1.9235e-06
1.9235e-06
1.9235e-06
1.9235e-06
1.93827e-06
1.93539e-06
1.93602e-06
1.93428e-06
1.92349e-06
1.9235e-06
1.9235e-06
1.9235e-06
1.94016e-06
1.93537e-06
1.93601e-06
1.93504e-06
1.93279e-06
1.93778e-06
1.9381e-06
1.93764e-06
1.93832e-06
1.93557e-06
1.93722e-06
1.93655e-06
1.93448e-06
1.93056e-06
1.93541e-06
1.93603e-06
1.90527e-06
1.90552e-06
1.90498e-06
1.90181e-06
1.90177e-06
1.90121e-06
1.90216e-06
1.90769e-06
1.90671e-06
1.90515e-06
1.89915e-06
1.89517e-06
1.89516e-06
1.89516e-06
1.89516e-06
1.90598e-06
1.9045e-06
1.90181e-06
1.89517e-06
1.89517e-06
1.89516e-06
1.89516e-06
1.89516e-06
1.89516e-06
1.90946e-06
1.90823e-06
1.90536e-06
1.90181e-06
1.89516e-06
1.89516e-06
1.89516e-06
1.89516e-06
1.89516e-06
1.89516e-06
1.90974e-06
1.90615e-06
1.90537e-06
1.90121e-06
1.89515e-06
1.89515e-06
1.89515e-06
1.89515e-06
1.89515e-06
1.89515e-06
1.90928e-06
1.9022e-06
1.90208e-06
1.89515e-06
1.89514e-06
1.89515e-06
1.89515e-06
1.89515e-06
1.89515e-06
1.90993e-06
1.90705e-06
1.90765e-06
1.90592e-06
1.89514e-06
1.89514e-06
1.89515e-06
1.89515e-06
1.91181e-06
1.90702e-06
1.90766e-06
1.90667e-06
1.9044e-06
1.90944e-06
1.90977e-06
1.9093e-06
1.90997e-06
1.90722e-06
1.90887e-06
1.9082e-06
1.90614e-06
1.90221e-06
1.90705e-06
1.90768e-06
1.87692e-06
1.87716e-06
1.87663e-06
1.87344e-06
1.87342e-06
1.87286e-06
1.87381e-06
1.87934e-06
1.87836e-06
1.87678e-06
1.87081e-06
1.86682e-06
1.86681e-06
1.86681e-06
1.86681e-06
1.87763e-06
1.87616e-06
1.87339e-06
1.86682e-06
1.86681e-06
1.86681e-06
1.86681e-06
1.86681e-06
1.86681e-06
1.88111e-06
1.87989e-06
1.87687e-06
1.87346e-06
1.86681e-06
1.86681e-06
1.86681e-06
1.86681e-06
1.86681e-06
1.86681e-06
1.8814e-06
1.8778e-06
1.87718e-06
1.87285e-06
1.8668e-06
1.8668e-06
1.86681e-06
1.86681e-06
1.86681e-06
1.86681e-06
1.88093e-06
1.87386e-06
1.87376e-06
1.8668e-06
1.8668e-06
1.8668e-06
1.8668e-06
1.8668e-06
1.86681e-06
1.88158e-06
1.8787e-06
1.87931e-06
1.87761e-06
1.8668e-06
1.8668e-06
1.8668e-06
1.8668e-06
1.88346e-06
1.87868e-06
1.87932e-06
1.87837e-06
1.87614e-06
1.88112e-06
1.88141e-06
1.88095e-06
1.88162e-06
1.87887e-06
1.88052e-06
1.87988e-06
1.87779e-06
1.87386e-06
1.87871e-06
1.87933e-06
1.84857e-06
1.84882e-06
1.84828e-06
1.84508e-06
1.84506e-06
1.84451e-06
1.84546e-06
1.85099e-06
1.85001e-06
1.84843e-06
1.84245e-06
1.83846e-06
1.83846e-06
1.83846e-06
1.83846e-06
1.84928e-06
1.84781e-06
1.84507e-06
1.83846e-06
1.83846e-06
1.83846e-06
1.83846e-06
1.83846e-06
1.83846e-06
1.85277e-06
1.85154e-06
1.84852e-06
1.84506e-06
1.83846e-06
1.83846e-06
1.83846e-06
1.83846e-06
1.83846e-06
1.83846e-06
1.85306e-06
1.84946e-06
1.84878e-06
1.84451e-06
1.83846e-06
1.83846e-06
1.83846e-06
1.83846e-06
1.83846e-06
1.83846e-06
1.85259e-06
1.84551e-06
1.84544e-06
1.83846e-06
1.83845e-06
1.83846e-06
1.83846e-06
1.83846e-06
1.83846e-06
1.85323e-06
1.85035e-06
1.85099e-06
1.84926e-06
1.83845e-06
1.83846e-06
1.83846e-06
1.83846e-06
1.85512e-06
1.85033e-06
1.85097e-06
1.85002e-06
1.84779e-06
1.85277e-06
1.85306e-06
1.85261e-06
1.85329e-06
1.85053e-06
1.85218e-06
1.85153e-06
1.84945e-06
1.84552e-06
1.85039e-06
1.851e-06
1.82022e-06
1.82046e-06
1.81993e-06
1.81673e-06
1.81671e-06
1.81616e-06
1.81711e-06
1.82264e-06
1.82166e-06
1.82007e-06
1.8141e-06
1.81011e-06
1.81011e-06
1.81011e-06
1.81011e-06
1.82094e-06
1.81946e-06
1.81671e-06
1.81011e-06
1.81011e-06
1.81011e-06
1.81011e-06
1.81011e-06
1.81011e-06
1.82442e-06
1.82319e-06
1.82018e-06
1.81671e-06
1.81011e-06
1.81011e-06
1.81011e-06
1.81011e-06
1.81011e-06
1.81011e-06
1.82471e-06
1.82111e-06
1.82044e-06
1.81616e-06
1.81011e-06
1.81011e-06
1.81011e-06
1.81011e-06
1.81011e-06
1.81011e-06
1.82424e-06
1.81716e-06
1.81709e-06
1.81011e-06
1.81011e-06
1.81011e-06
1.81011e-06
1.81011e-06
1.81011e-06
1.82489e-06
1.82201e-06
1.82264e-06
1.82091e-06
1.8101e-06
1.81011e-06
1.81011e-06
1.81011e-06
1.82677e-06
1.82198e-06
1.82262e-06
1.82168e-06