/*--------------------------------*- C++ -*----------------------------------*\
| =========                 |                                                 |
| \\      /  F ield         | OpenFOAM: The Open Source CFD Toolbox           |
|  \\    /   O peration     | Version:  v2012                                 |
|   \\  /    A nd           | Website:  www.openfoam.com                      |
|    \\/     M anipulation  |                                                 |
\*---------------------------------------------------------------------------*/
FoamFile
{
    version     2.0;
    format      ascii;
    class       volScalarField;
    location    "6";
    object      p;
}
// * * * * * * * * * * * * * * * * * * * * * * * * * * * * * * * * * * * * * //

dimensions      [0 2 -2 0 0 0 0];


internalField   nonuniform List<scalar> 
244288
(
1.63194e-06
1.63227e-06
1.63222e-06
1.63203e-06
1.63194e-06
1.63206e-06
1.63224e-06
1.63227e-06
1.63226e-06
1.63202e-06
1.63172e-06
1.63161e-06
1.63175e-06
1.63206e-06
1.63227e-06
1.63222e-06
1.63202e-06
1.63158e-06
1.63118e-06
1.63104e-06
1.63122e-06
1.63163e-06
1.63206e-06
1.63223e-06
1.63203e-06
1.63172e-06
1.63118e-06
1.63074e-06
1.63059e-06
1.63078e-06
1.63125e-06
1.63178e-06
1.63205e-06
1.63194e-06
1.63194e-06
1.63161e-06
1.63104e-06
1.63059e-06
1.63043e-06
1.63063e-06
1.63111e-06
1.63167e-06
1.63195e-06
1.63206e-06
1.63175e-06
1.63122e-06
1.63078e-06
1.63063e-06
1.63082e-06
1.63129e-06
1.63181e-06
1.63207e-06
1.63224e-06
1.63206e-06
1.63163e-06
1.63125e-06
1.63111e-06
1.63129e-06
1.63169e-06
1.6321e-06
1.63224e-06
1.63227e-06
1.63206e-06
1.63178e-06
1.63167e-06
1.63181e-06
1.6321e-06
1.63227e-06
1.63223e-06
1.63205e-06
1.63195e-06
1.63207e-06
1.63224e-06
1.60476e-06
1.60428e-06
1.60395e-06
1.60251e-06
1.6024e-06
1.6024e-06
1.60243e-06
1.60385e-06
1.60402e-06
1.60395e-06
1.60211e-06
1.59958e-06
1.59963e-06
1.59963e-06
1.59957e-06
1.60199e-06
1.60246e-06
1.60251e-06
1.59958e-06
1.59958e-06
1.59963e-06
1.59963e-06
1.59958e-06
1.59959e-06
1.60226e-06
1.60413e-06
1.60476e-06
1.60241e-06
1.59963e-06
1.59963e-06
1.59967e-06
1.59967e-06
1.59963e-06
1.59963e-06
1.60213e-06
1.60395e-06
1.60429e-06
1.6024e-06
1.59963e-06
1.59963e-06
1.59967e-06
1.59968e-06
1.59963e-06
1.59963e-06
1.60209e-06
1.60265e-06
1.60243e-06
1.59958e-06
1.59958e-06
1.59963e-06
1.59963e-06
1.59958e-06
1.59958e-06
1.60217e-06
1.604e-06
1.60385e-06
1.60199e-06
1.59959e-06
1.59964e-06
1.59964e-06
1.59959e-06
1.60172e-06
1.60241e-06
1.60416e-06
1.60402e-06
1.60246e-06
1.60226e-06
1.60213e-06
1.6021e-06
1.60218e-06
1.60242e-06
1.60407e-06
1.60413e-06
1.60395e-06
1.60266e-06
1.604e-06
1.60417e-06
1.58748e-06
1.58733e-06
1.58728e-06
1.58561e-06
1.5855e-06
1.58547e-06
1.58554e-06
1.58711e-06
1.58736e-06
1.58728e-06
1.58522e-06
1.58231e-06
1.58231e-06
1.58231e-06
1.58231e-06
1.58511e-06
1.58571e-06
1.58561e-06
1.58231e-06
1.5823e-06
1.58231e-06
1.58231e-06
1.5823e-06
1.58231e-06
1.58547e-06
1.58734e-06
1.58748e-06
1.5855e-06
1.58231e-06
1.58231e-06
1.58232e-06
1.58232e-06
1.58231e-06
1.58231e-06
1.5853e-06
1.58705e-06
1.58733e-06
1.58547e-06
1.58231e-06
1.58231e-06
1.58232e-06
1.58232e-06
1.58231e-06
1.58231e-06
1.58525e-06
1.58583e-06
1.58554e-06
1.58231e-06
1.58231e-06
1.58231e-06
1.58231e-06
1.58231e-06
1.58232e-06
1.58537e-06
1.58719e-06
1.58711e-06
1.58511e-06
1.58232e-06
1.58231e-06
1.58231e-06
1.58232e-06
1.58488e-06
1.58562e-06
1.5874e-06
1.58736e-06
1.58571e-06
1.58547e-06
1.5853e-06
1.58525e-06
1.58537e-06
1.58562e-06
1.58721e-06
1.58734e-06
1.58705e-06
1.58583e-06
1.5872e-06
1.5874e-06
1.5706e-06
1.57045e-06
1.57038e-06
1.56869e-06
1.56859e-06
1.56857e-06
1.56864e-06
1.57022e-06
1.57047e-06
1.57038e-06
1.56826e-06
1.56532e-06
1.56532e-06
1.56532e-06
1.56532e-06
1.56817e-06
1.56881e-06
1.56869e-06
1.56532e-06
1.56531e-06
1.56531e-06
1.56531e-06
1.56531e-06
1.56532e-06
1.5686e-06
1.57045e-06
1.5706e-06
1.56859e-06
1.56532e-06
1.56531e-06
1.56531e-06
1.56531e-06
1.56531e-06
1.56532e-06
1.56848e-06
1.57017e-06
1.57045e-06
1.56857e-06
1.56532e-06
1.56531e-06
1.56531e-06
1.56531e-06
1.56531e-06
1.56532e-06
1.56844e-06
1.56895e-06
1.56864e-06
1.56532e-06
1.56531e-06
1.56531e-06
1.56531e-06
1.56531e-06
1.56532e-06
1.56854e-06
1.57031e-06
1.57022e-06
1.56817e-06
1.56532e-06
1.56532e-06
1.56532e-06
1.56532e-06
1.56801e-06
1.56874e-06
1.57051e-06
1.57047e-06
1.56881e-06
1.56861e-06
1.56848e-06
1.56844e-06
1.56854e-06
1.56874e-06
1.5703e-06
1.57045e-06
1.57017e-06
1.56895e-06
1.57031e-06
1.57051e-06
1.55366e-06
1.55351e-06
1.55343e-06
1.55173e-06
1.55163e-06
1.55161e-06
1.55168e-06
1.55327e-06
1.55352e-06
1.55343e-06
1.55129e-06
1.54834e-06
1.54834e-06
1.54834e-06
1.54834e-06
1.55121e-06
1.55186e-06
1.55173e-06
1.54834e-06
1.54834e-06
1.54834e-06
1.54834e-06
1.54834e-06
1.54834e-06
1.55166e-06
1.5535e-06
1.55366e-06
1.55163e-06
1.54834e-06
1.54834e-06
1.54834e-06
1.54834e-06
1.54834e-06
1.54834e-06
1.55155e-06
1.55322e-06
1.55351e-06
1.55161e-06
1.54834e-06
1.54834e-06
1.54834e-06
1.54834e-06
1.54834e-06
1.54834e-06
1.55151e-06
1.552e-06
1.55168e-06
1.54834e-06
1.54834e-06
1.54834e-06
1.54834e-06
1.54834e-06
1.54834e-06
1.55159e-06
1.55336e-06
1.55327e-06
1.55121e-06
1.54834e-06
1.54834e-06
1.54834e-06
1.54834e-06
1.55106e-06
1.55179e-06
1.55356e-06
1.55352e-06
1.55186e-06
1.55166e-06
1.55155e-06
1.55151e-06
1.5516e-06
1.55179e-06
1.55335e-06
1.5535e-06
1.55322e-06
1.552e-06
1.55336e-06
1.55356e-06
1.53669e-06
1.53655e-06
1.53646e-06
1.53477e-06
1.53467e-06
1.53464e-06
1.53472e-06
1.5363e-06
1.53655e-06
1.53647e-06
1.53432e-06
1.53137e-06
1.53137e-06
1.53137e-06
1.53137e-06
1.53424e-06
1.53489e-06
1.53477e-06
1.53137e-06
1.53137e-06
1.53137e-06
1.53137e-06
1.53137e-06
1.53137e-06
1.53469e-06
1.53654e-06
1.5367e-06
1.53467e-06
1.53137e-06
1.53137e-06
1.53137e-06
1.53137e-06
1.53137e-06
1.53137e-06
1.53459e-06
1.53626e-06
1.53656e-06
1.53464e-06
1.53137e-06
1.53137e-06
1.53137e-06
1.53137e-06
1.53137e-06
1.53137e-06
1.53455e-06
1.53504e-06
1.53472e-06
1.53137e-06
1.53137e-06
1.53137e-06
1.53137e-06
1.53137e-06
1.53137e-06
1.53463e-06
1.5364e-06
1.5363e-06
1.53424e-06
1.53137e-06
1.53137e-06
1.53137e-06
1.53137e-06
1.5341e-06
1.53482e-06
1.5366e-06
1.53655e-06
1.53489e-06
1.53469e-06
1.53459e-06
1.53455e-06
1.53463e-06
1.53482e-06
1.53638e-06
1.53654e-06
1.53626e-06
1.53504e-06
1.5364e-06
1.5366e-06
1.51973e-06
1.51958e-06
1.5195e-06
1.5178e-06
1.5177e-06
1.51767e-06
1.51775e-06
1.51934e-06
1.51959e-06
1.5195e-06
1.51735e-06
1.5144e-06
1.5144e-06
1.5144e-06
1.5144e-06
1.51727e-06
1.51793e-06
1.5178e-06
1.5144e-06
1.5144e-06
1.5144e-06
1.5144e-06
1.5144e-06
1.5144e-06
1.51773e-06
1.51957e-06
1.51973e-06
1.5177e-06
1.5144e-06
1.5144e-06
1.5144e-06
1.5144e-06
1.5144e-06
1.5144e-06
1.51762e-06
1.51929e-06
1.51959e-06
1.51767e-06
1.5144e-06
1.5144e-06
1.5144e-06
1.5144e-06
1.5144e-06
1.5144e-06
1.51758e-06
1.51808e-06
1.51775e-06
1.5144e-06
1.5144e-06
1.5144e-06
1.5144e-06
1.5144e-06
1.5144e-06
1.51767e-06
1.51943e-06
1.51934e-06
1.51727e-06
1.5144e-06
1.5144e-06
1.5144e-06
1.5144e-06
1.51714e-06
1.51786e-06
1.51963e-06
1.51959e-06
1.51793e-06
1.51773e-06
1.51762e-06
1.51758e-06
1.51767e-06
1.51786e-06
1.51941e-06
1.51958e-06
1.5193e-06
1.51808e-06
1.51943e-06
1.51963e-06
1.50276e-06
1.50261e-06
1.50253e-06
1.50083e-06
1.50073e-06
1.50071e-06
1.50078e-06
1.50237e-06
1.50262e-06
1.50253e-06
1.50038e-06
1.49744e-06
1.49744e-06
1.49744e-06
1.49744e-06
1.5003e-06
1.50096e-06
1.50084e-06
1.49744e-06
1.49744e-06
1.49744e-06
1.49744e-06
1.49744e-06
1.49744e-06
1.50076e-06
1.50261e-06
1.50276e-06
1.50073e-06
1.49744e-06
1.49744e-06
1.49744e-06
1.49744e-06
1.49744e-06
1.49744e-06
1.50066e-06
1.50233e-06
1.50261e-06
1.50071e-06
1.49744e-06
1.49744e-06
1.49744e-06
1.49744e-06
1.49744e-06
1.49744e-06
1.50062e-06
1.50111e-06
1.50078e-06
1.49744e-06
1.49744e-06
1.49744e-06
1.49744e-06
1.49744e-06
1.49744e-06
1.5007e-06
1.50247e-06
1.50237e-06
1.5003e-06
1.49744e-06
1.49744e-06
1.49744e-06
1.49744e-06
1.50017e-06
1.50089e-06
1.50266e-06
1.50262e-06
1.50096e-06
1.50076e-06
1.50066e-06
1.50062e-06
1.5007e-06
1.50089e-06
1.50245e-06
1.50261e-06
1.50233e-06
1.50111e-06
1.50247e-06
1.50266e-06
1.4858e-06
1.48565e-06
1.48556e-06
1.48387e-06
1.48377e-06
1.48374e-06
1.48382e-06
1.4854e-06
1.48565e-06
1.48557e-06
1.48342e-06
1.48047e-06
1.48047e-06
1.48047e-06
1.48047e-06
1.48334e-06
1.48399e-06
1.48387e-06
1.48047e-06
1.48047e-06
1.48047e-06
1.48047e-06
1.48047e-06
1.48047e-06
1.48379e-06
1.48564e-06
1.4858e-06
1.48377e-06
1.48047e-06
1.48047e-06
1.48047e-06
1.48047e-06
1.48047e-06
1.48047e-06
1.48369e-06
1.48536e-06
1.48564e-06
1.48374e-06
1.48047e-06
1.48047e-06
1.48047e-06
1.48047e-06
1.48047e-06
1.48047e-06
1.48365e-06
1.48414e-06
1.48382e-06
1.48047e-06
1.48047e-06
1.48047e-06
1.48047e-06
1.48047e-06
1.48047e-06
1.48373e-06
1.4855e-06
1.4854e-06
1.48334e-06
1.48047e-06
1.48047e-06
1.48047e-06
1.48047e-06
1.4832e-06
1.48392e-06
1.4857e-06
1.48565e-06
1.48399e-06
1.48379e-06
1.48369e-06
1.48365e-06
1.48374e-06
1.48392e-06
1.48548e-06
1.48564e-06
1.48536e-06
1.48414e-06
1.4855e-06
1.4857e-06
1.46883e-06
1.46868e-06
1.4686e-06
1.4669e-06
1.4668e-06
1.46677e-06
1.46685e-06
1.46844e-06
1.46868e-06
1.4686e-06
1.46645e-06
1.4635e-06
1.4635e-06
1.4635e-06
1.4635e-06
1.46637e-06
1.46703e-06
1.4669e-06
1.4635e-06
1.4635e-06
1.4635e-06
1.4635e-06
1.4635e-06
1.4635e-06
1.46683e-06
1.46867e-06
1.46882e-06
1.4668e-06
1.4635e-06
1.4635e-06
1.4635e-06
1.4635e-06
1.4635e-06
1.4635e-06
1.46672e-06
1.46839e-06
1.46868e-06
1.46677e-06
1.4635e-06
1.4635e-06
1.4635e-06
1.4635e-06
1.4635e-06
1.4635e-06
1.46668e-06
1.46718e-06
1.46685e-06
1.4635e-06
1.4635e-06
1.4635e-06
1.4635e-06
1.4635e-06
1.4635e-06
1.46677e-06
1.46853e-06
1.46843e-06
1.46637e-06
1.4635e-06
1.4635e-06
1.4635e-06
1.4635e-06
1.46624e-06
1.46696e-06
1.46873e-06
1.46868e-06
1.46703e-06
1.46683e-06
1.46672e-06
1.46668e-06
1.46677e-06
1.46696e-06
1.46851e-06
1.46867e-06
1.46839e-06
1.46718e-06
1.46853e-06
1.46873e-06
1.45186e-06
1.45171e-06
1.45163e-06
1.44993e-06
1.44983e-06
1.4498e-06
1.44988e-06
1.45147e-06
1.45172e-06
1.45163e-06
1.44948e-06
1.44654e-06
1.44654e-06
1.44654e-06
1.44654e-06
1.4494e-06
1.45006e-06
1.44993e-06
1.44654e-06
1.44654e-06
1.44654e-06
1.44654e-06
1.44654e-06
1.44654e-06
1.44986e-06
1.45171e-06
1.45186e-06
1.44983e-06
1.44654e-06
1.44654e-06
1.44654e-06
1.44654e-06
1.44654e-06
1.44654e-06
1.44975e-06
1.45143e-06
1.45171e-06
1.4498e-06
1.44654e-06
1.44654e-06
1.44654e-06
1.44654e-06
1.44654e-06
1.44654e-06
1.44971e-06
1.45021e-06
1.44988e-06
1.44654e-06
1.44654e-06
1.44654e-06
1.44654e-06
1.44654e-06
1.44654e-06
1.4498e-06
1.45157e-06
1.45147e-06
1.4494e-06
1.44654e-06
1.44654e-06
1.44654e-06
1.44654e-06
1.44927e-06
1.44999e-06
1.45176e-06
1.45172e-06
1.45006e-06
1.44986e-06
1.44975e-06
1.44971e-06
1.4498e-06
1.44999e-06
1.45155e-06
1.45171e-06
1.45143e-06
1.45021e-06
1.45157e-06
1.45176e-06
1.43489e-06
1.43475e-06
1.43466e-06
1.43297e-06
1.43287e-06
1.43284e-06
1.43292e-06
1.4345e-06
1.43475e-06
1.43466e-06
1.43252e-06
1.42957e-06
1.42957e-06
1.42957e-06
1.42957e-06
1.43244e-06
1.43309e-06
1.43297e-06
1.42957e-06
1.42957e-06
1.42957e-06
1.42957e-06
1.42957e-06
1.42957e-06
1.43289e-06
1.43474e-06
1.4349e-06
1.43287e-06
1.42957e-06
1.42957e-06
1.42957e-06
1.42957e-06
1.42957e-06
1.42957e-06
1.43279e-06
1.43446e-06
1.43475e-06
1.43284e-06
1.42957e-06
1.42957e-06
1.42957e-06
1.42957e-06
1.42957e-06
1.42957e-06
1.43275e-06
1.43324e-06
1.43292e-06
1.42957e-06
1.42957e-06
1.42957e-06
1.42957e-06
1.42957e-06
1.42957e-06
1.43283e-06
1.4346e-06
1.4345e-06
1.43244e-06
1.42957e-06
1.42957e-06
1.42957e-06
1.42957e-06
1.4323e-06
1.43302e-06
1.4348e-06
1.43475e-06
1.43309e-06
1.43289e-06
1.43279e-06
1.43275e-06
1.43284e-06
1.43302e-06
1.43458e-06
1.43474e-06
1.43446e-06
1.43324e-06
1.4346e-06
1.4348e-06
1.41793e-06
1.41778e-06
1.4177e-06
1.416e-06
1.4159e-06
1.41587e-06
1.41595e-06
1.41754e-06
1.41778e-06
1.4177e-06
1.41555e-06
1.4126e-06
1.4126e-06
1.4126e-06
1.4126e-06
1.41547e-06
1.41613e-06
1.416e-06
1.4126e-06
1.4126e-06
1.4126e-06
1.4126e-06
1.4126e-06
1.4126e-06
1.41593e-06
1.41777e-06
1.41793e-06
1.4159e-06
1.4126e-06
1.4126e-06
1.4126e-06
1.4126e-06
1.4126e-06
1.4126e-06
1.41582e-06
1.41749e-06
1.41778e-06
1.41587e-06
1.4126e-06
1.4126e-06
1.4126e-06
1.4126e-06
1.4126e-06
1.4126e-06
1.41578e-06
1.41628e-06
1.41595e-06
1.4126e-06
1.4126e-06
1.4126e-06
1.4126e-06
1.4126e-06
1.4126e-06
1.41587e-06
1.41763e-06
1.41754e-06
1.41547e-06
1.4126e-06
1.4126e-06
1.4126e-06
1.4126e-06
1.41534e-06
1.41606e-06
1.41783e-06
1.41778e-06
1.41613e-06
1.41593e-06
1.41582e-06
1.41578e-06
1.41587e-06
1.41606e-06
1.41761e-06
1.41777e-06
1.41749e-06
1.41628e-06
1.41763e-06
1.41783e-06
1.40096e-06
1.40081e-06
1.40073e-06
1.39903e-06
1.39893e-06
1.39891e-06
1.39898e-06
1.40057e-06
1.40082e-06
1.40073e-06
1.39858e-06
1.39564e-06
1.39564e-06
1.39564e-06
1.39564e-06
1.3985e-06
1.39916e-06
1.39903e-06
1.39564e-06
1.39564e-06
1.39564e-06
1.39564e-06
1.39564e-06
1.39564e-06
1.39896e-06
1.40081e-06
1.40097e-06
1.39893e-06
1.39564e-06
1.39564e-06
1.39564e-06
1.39564e-06
1.39564e-06
1.39564e-06
1.39885e-06
1.40053e-06
1.40082e-06
1.39891e-06
1.39564e-06
1.39564e-06
1.39564e-06
1.39564e-06
1.39564e-06
1.39564e-06
1.39881e-06
1.39931e-06
1.39898e-06
1.39564e-06
1.39564e-06
1.39564e-06
1.39564e-06
1.39564e-06
1.39564e-06
1.3989e-06
1.40067e-06
1.40057e-06
1.3985e-06
1.39564e-06
1.39564e-06
1.39564e-06
1.39564e-06
1.39837e-06
1.39909e-06
1.40086e-06
1.40082e-06
1.39916e-06
1.39896e-06
1.39886e-06
1.39882e-06
1.3989e-06
1.39909e-06
1.40065e-06
1.40081e-06
1.40053e-06
1.39931e-06
1.40067e-06
1.40086e-06
1.38399e-06
1.38385e-06
1.38376e-06
1.38207e-06
1.38197e-06
1.38194e-06
1.38202e-06
1.3836e-06
1.38385e-06
1.38376e-06
1.38162e-06
1.37867e-06
1.37867e-06
1.37867e-06
1.37867e-06
1.38154e-06
1.38219e-06
1.38207e-06
1.37867e-06
1.37867e-06
1.37867e-06
1.37867e-06
1.37867e-06
1.37867e-06
1.38199e-06
1.38384e-06
1.384e-06
1.38196e-06
1.37867e-06
1.37867e-06
1.37867e-06
1.37867e-06
1.37867e-06
1.37867e-06
1.38189e-06
1.38356e-06
1.38386e-06
1.38194e-06
1.37867e-06
1.37867e-06
1.37867e-06
1.37867e-06
1.37867e-06
1.37867e-06
1.38185e-06
1.38234e-06
1.38202e-06
1.37867e-06
1.37867e-06
1.37867e-06
1.37867e-06
1.37867e-06
1.37867e-06
1.38193e-06
1.3837e-06
1.3836e-06
1.38154e-06
1.37867e-06
1.37867e-06
1.37867e-06
1.37867e-06
1.3814e-06
1.38212e-06
1.3839e-06
1.38385e-06
1.38219e-06
1.38199e-06
1.38189e-06
1.38185e-06
1.38193e-06
1.38212e-06
1.38368e-06
1.38384e-06
1.38356e-06
1.38234e-06
1.3837e-06
1.3839e-06
1.36703e-06
1.36688e-06
1.3668e-06
1.3651e-06
1.365e-06
1.36497e-06
1.36505e-06
1.36663e-06
1.36688e-06
1.3668e-06
1.36465e-06
1.3617e-06
1.3617e-06
1.3617e-06
1.3617e-06
1.36457e-06
1.36523e-06
1.3651e-06
1.3617e-06
1.3617e-06
1.3617e-06
1.3617e-06
1.3617e-06
1.3617e-06
1.36503e-06
1.36687e-06
1.36703e-06
1.365e-06
1.3617e-06
1.3617e-06
1.3617e-06
1.3617e-06
1.3617e-06
1.3617e-06
1.36492e-06
1.36659e-06
1.36688e-06
1.36497e-06
1.3617e-06
1.3617e-06
1.3617e-06
1.3617e-06
1.3617e-06
1.3617e-06
1.36488e-06
1.36538e-06
1.36505e-06
1.3617e-06
1.3617e-06
1.3617e-06
1.3617e-06
1.3617e-06
1.3617e-06
1.36497e-06
1.36673e-06
1.36663e-06
1.36457e-06
1.3617e-06
1.3617e-06
1.3617e-06
1.3617e-06
1.36444e-06
1.36516e-06
1.36693e-06
1.36688e-06
1.36522e-06
1.36503e-06
1.36492e-06
1.36488e-06
1.36497e-06
1.36515e-06
1.36671e-06
1.36687e-06
1.36659e-06
1.36538e-06
1.36673e-06
1.36693e-06
1.35006e-06
1.34991e-06
1.34983e-06
1.34813e-06
1.34803e-06
1.348e-06
1.34808e-06
1.34967e-06
1.34992e-06
1.34983e-06
1.34768e-06
1.34473e-06
1.34473e-06
1.34473e-06
1.34473e-06
1.3476e-06
1.34826e-06
1.34813e-06
1.34473e-06
1.34473e-06
1.34473e-06
1.34473e-06
1.34473e-06
1.34473e-06
1.34806e-06
1.34991e-06
1.35006e-06
1.34803e-06
1.34473e-06
1.34473e-06
1.34473e-06
1.34473e-06
1.34473e-06
1.34473e-06
1.34795e-06
1.34963e-06
1.34991e-06
1.348e-06
1.34473e-06
1.34473e-06
1.34473e-06
1.34473e-06
1.34473e-06
1.34473e-06
1.34791e-06
1.34841e-06
1.34808e-06
1.34473e-06
1.34473e-06
1.34473e-06
1.34473e-06
1.34473e-06
1.34473e-06
1.348e-06
1.34977e-06
1.34967e-06
1.3476e-06
1.34473e-06
1.34473e-06
1.34473e-06
1.34474e-06
1.34747e-06
1.34819e-06
1.34996e-06
1.34992e-06
1.34826e-06
1.34806e-06
1.34795e-06
1.34791e-06
1.348e-06
1.34819e-06
1.34975e-06
1.34991e-06
1.34963e-06
1.34841e-06
1.34977e-06
1.34996e-06
1.33309e-06
1.33294e-06
1.33286e-06
1.33117e-06
1.33106e-06
1.33104e-06
1.33111e-06
1.3327e-06
1.33295e-06
1.33286e-06
1.33071e-06
1.32777e-06
1.32777e-06
1.32777e-06
1.32777e-06
1.33063e-06
1.33129e-06
1.33117e-06
1.32777e-06
1.32777e-06
1.32777e-06
1.32777e-06
1.32777e-06
1.32777e-06
1.33109e-06
1.33294e-06
1.33309e-06
1.33106e-06
1.32777e-06
1.32777e-06
1.32777e-06
1.32777e-06
1.32777e-06
1.32777e-06
1.33099e-06
1.33266e-06
1.33294e-06
1.33104e-06
1.32777e-06
1.32777e-06
1.32777e-06
1.32777e-06
1.32777e-06
1.32777e-06
1.33095e-06
1.33144e-06
1.33111e-06
1.32777e-06
1.32777e-06
1.32777e-06
1.32777e-06
1.32777e-06
1.32777e-06
1.33103e-06
1.3328e-06
1.3327e-06
1.33063e-06
1.32777e-06
1.32777e-06
1.32777e-06
1.32777e-06
1.3305e-06
1.33122e-06
1.33299e-06
1.33295e-06
1.33129e-06
1.33109e-06
1.33099e-06
1.33095e-06
1.33103e-06
1.33122e-06
1.33278e-06
1.33294e-06
1.33266e-06
1.33144e-06
1.3328e-06
1.333e-06
1.31613e-06
1.31598e-06
1.3159e-06
1.3142e-06
1.3141e-06
1.31407e-06
1.31415e-06
1.31573e-06
1.31598e-06
1.3159e-06
1.31375e-06
1.3108e-06
1.3108e-06
1.3108e-06
1.3108e-06
1.31367e-06
1.31432e-06
1.3142e-06
1.3108e-06
1.3108e-06
1.3108e-06
1.3108e-06
1.3108e-06
1.3108e-06
1.31412e-06
1.31597e-06
1.31613e-06
1.3141e-06
1.3108e-06
1.3108e-06
1.3108e-06
1.3108e-06
1.3108e-06
1.3108e-06
1.31402e-06
1.31569e-06
1.31598e-06
1.31407e-06
1.3108e-06
1.3108e-06
1.3108e-06
1.3108e-06
1.3108e-06
1.3108e-06
1.31398e-06
1.31447e-06
1.31415e-06
1.3108e-06
1.3108e-06
1.3108e-06
1.3108e-06
1.3108e-06
1.3108e-06
1.31407e-06
1.31583e-06
1.31573e-06
1.31367e-06
1.3108e-06
1.3108e-06
1.3108e-06
1.3108e-06
1.31354e-06
1.31425e-06
1.31603e-06
1.31598e-06
1.31432e-06
1.31412e-06
1.31402e-06
1.31398e-06
1.31407e-06
1.31425e-06
1.31581e-06
1.31597e-06
1.31569e-06
1.31447e-06
1.31583e-06
1.31603e-06
1.29916e-06
1.29901e-06
1.29893e-06
1.29723e-06
1.29713e-06
1.2971e-06
1.29718e-06
1.29877e-06
1.29901e-06
1.29893e-06
1.29678e-06
1.29383e-06
1.29383e-06
1.29383e-06
1.29383e-06
1.2967e-06
1.29736e-06
1.29723e-06
1.29383e-06
1.29383e-06
1.29383e-06
1.29383e-06
1.29383e-06
1.29383e-06
1.29716e-06
1.299e-06
1.29916e-06
1.29713e-06
1.29383e-06
1.29383e-06
1.29383e-06
1.29383e-06
1.29383e-06
1.29383e-06
1.29705e-06
1.29872e-06
1.29901e-06
1.2971e-06
1.29383e-06
1.29383e-06
1.29383e-06
1.29383e-06
1.29383e-06
1.29383e-06
1.29701e-06
1.29751e-06
1.29718e-06
1.29383e-06
1.29383e-06
1.29383e-06
1.29383e-06
1.29383e-06
1.29383e-06
1.2971e-06
1.29886e-06
1.29877e-06
1.2967e-06
1.29383e-06
1.29383e-06
1.29383e-06
1.29383e-06
1.29657e-06
1.29729e-06
1.29906e-06
1.29901e-06
1.29736e-06
1.29716e-06
1.29705e-06
1.29701e-06
1.2971e-06
1.29729e-06
1.29884e-06
1.299e-06
1.29872e-06
1.29751e-06
1.29886e-06
1.29906e-06
1.28219e-06
1.28204e-06
1.28196e-06
1.28026e-06
1.28016e-06
1.28013e-06
1.28021e-06
1.2818e-06
1.28205e-06
1.28196e-06
1.27981e-06
1.27687e-06
1.27687e-06
1.27687e-06
1.27687e-06
1.27973e-06
1.28039e-06
1.28026e-06
1.27687e-06
1.27687e-06
1.27687e-06
1.27687e-06
1.27687e-06
1.27687e-06
1.28019e-06
1.28204e-06
1.28219e-06
1.28016e-06
1.27687e-06
1.27687e-06
1.27687e-06
1.27687e-06
1.27687e-06
1.27687e-06
1.28008e-06
1.28176e-06
1.28204e-06
1.28013e-06
1.27687e-06
1.27687e-06
1.27687e-06
1.27687e-06
1.27687e-06
1.27687e-06
1.28004e-06
1.28054e-06
1.28021e-06
1.27687e-06
1.27687e-06
1.27687e-06
1.27687e-06
1.27687e-06
1.27687e-06
1.28013e-06
1.2819e-06
1.2818e-06
1.27973e-06
1.27687e-06
1.27687e-06
1.27687e-06
1.27687e-06
1.2796e-06
1.28032e-06
1.28209e-06
1.28205e-06
1.28039e-06
1.28019e-06
1.28008e-06
1.28005e-06
1.28013e-06
1.28032e-06
1.28188e-06
1.28204e-06
1.28175e-06
1.28054e-06
1.2819e-06
1.28209e-06
1.26522e-06
1.26507e-06
1.26499e-06
1.2633e-06
1.26319e-06
1.26317e-06
1.26325e-06
1.26483e-06
1.26508e-06
1.26499e-06
1.26285e-06
1.2599e-06
1.2599e-06
1.2599e-06
1.2599e-06
1.26276e-06
1.26342e-06
1.2633e-06
1.2599e-06
1.2599e-06
1.2599e-06
1.2599e-06
1.2599e-06
1.2599e-06
1.26322e-06
1.26507e-06
1.26522e-06
1.26319e-06
1.2599e-06
1.2599e-06
1.2599e-06
1.2599e-06
1.2599e-06
1.2599e-06
1.26312e-06
1.26479e-06
1.26507e-06
1.26317e-06
1.2599e-06
1.2599e-06
1.2599e-06
1.2599e-06
1.2599e-06
1.2599e-06
1.26308e-06
1.26357e-06
1.26325e-06
1.2599e-06
1.2599e-06
1.2599e-06
1.2599e-06
1.2599e-06
1.2599e-06
1.26316e-06
1.26493e-06
1.26483e-06
1.26277e-06
1.2599e-06
1.2599e-06
1.2599e-06
1.2599e-06
1.26263e-06
1.26335e-06
1.26513e-06
1.26508e-06
1.26342e-06
1.26322e-06
1.26312e-06
1.26308e-06
1.26316e-06
1.26335e-06
1.26491e-06
1.26507e-06
1.26479e-06
1.26357e-06
1.26493e-06
1.26513e-06
1.24826e-06
1.24811e-06
1.24803e-06
1.24633e-06
1.24623e-06
1.2462e-06
1.24628e-06
1.24786e-06
1.24811e-06
1.24803e-06
1.24588e-06
1.24293e-06
1.24293e-06
1.24293e-06
1.24293e-06
1.2458e-06
1.24646e-06
1.24633e-06
1.24293e-06
1.24293e-06
1.24293e-06
1.24293e-06
1.24293e-06
1.24293e-06
1.24626e-06
1.2481e-06
1.24826e-06
1.24623e-06
1.24293e-06
1.24293e-06
1.24293e-06
1.24293e-06
1.24293e-06
1.24293e-06
1.24615e-06
1.24782e-06
1.24811e-06
1.2462e-06
1.24293e-06
1.24293e-06
1.24293e-06
1.24293e-06
1.24293e-06
1.24293e-06
1.24611e-06
1.24661e-06
1.24628e-06
1.24293e-06
1.24293e-06
1.24293e-06
1.24293e-06
1.24293e-06
1.24293e-06
1.2462e-06
1.24796e-06
1.24786e-06
1.2458e-06
1.24293e-06
1.24293e-06
1.24293e-06
1.24293e-06
1.24567e-06
1.24639e-06
1.24816e-06
1.24811e-06
1.24646e-06
1.24626e-06
1.24615e-06
1.24611e-06
1.2462e-06
1.24639e-06
1.24794e-06
1.2481e-06
1.24783e-06
1.2466e-06
1.24796e-06
1.24816e-06
1.23129e-06
1.23114e-06
1.23106e-06
1.22936e-06
1.22926e-06
1.22923e-06
1.22931e-06
1.2309e-06
1.23115e-06
1.23106e-06
1.22891e-06
1.22597e-06
1.22597e-06
1.22597e-06
1.22597e-06
1.22883e-06
1.22949e-06
1.22936e-06
1.22597e-06
1.22597e-06
1.22597e-06
1.22597e-06
1.22597e-06
1.22597e-06
1.22929e-06
1.23114e-06
1.23129e-06
1.22926e-06
1.22597e-06
1.22597e-06
1.22597e-06
1.22597e-06
1.22597e-06
1.22597e-06
1.22918e-06
1.23086e-06
1.23114e-06
1.22923e-06
1.22597e-06
1.22597e-06
1.22597e-06
1.22597e-06
1.22597e-06
1.22597e-06
1.22914e-06
1.22964e-06
1.22931e-06
1.22597e-06
1.22597e-06
1.22597e-06
1.22597e-06
1.22597e-06
1.22597e-06
1.22923e-06
1.231e-06
1.2309e-06
1.22883e-06
1.22597e-06
1.22597e-06
1.22597e-06
1.22597e-06
1.2287e-06
1.22942e-06
1.23119e-06
1.23115e-06
1.22949e-06
1.22929e-06
1.22919e-06
1.22915e-06
1.22923e-06
1.22942e-06
1.23098e-06
1.23114e-06
1.23086e-06
1.22964e-06
1.231e-06
1.23119e-06
1.21432e-06
1.21418e-06
1.21409e-06
1.2124e-06
1.2123e-06
1.21227e-06
1.21235e-06
1.21393e-06
1.21418e-06
1.21409e-06
1.21195e-06
1.209e-06
1.209e-06
1.209e-06
1.209e-06
1.21187e-06
1.21252e-06
1.2124e-06
1.209e-06
1.209e-06
1.209e-06
1.209e-06
1.209e-06
1.209e-06
1.21232e-06
1.21417e-06
1.21432e-06
1.2123e-06
1.209e-06
1.209e-06
1.209e-06
1.209e-06
1.209e-06
1.209e-06
1.21222e-06
1.21389e-06
1.21418e-06
1.21227e-06
1.209e-06
1.209e-06
1.209e-06
1.209e-06
1.209e-06
1.209e-06
1.21218e-06
1.21267e-06
1.21235e-06
1.209e-06
1.209e-06
1.209e-06
1.209e-06
1.209e-06
1.209e-06
1.21226e-06
1.21403e-06
1.21393e-06
1.21187e-06
1.209e-06
1.209e-06
1.209e-06
1.209e-06
1.21173e-06
1.21245e-06
1.21423e-06
1.21418e-06
1.21252e-06
1.21232e-06
1.21222e-06
1.21218e-06
1.21226e-06
1.21245e-06
1.21401e-06
1.21417e-06
1.21389e-06
1.21268e-06
1.21403e-06
1.21423e-06
1.19736e-06
1.19721e-06
1.19713e-06
1.19543e-06
1.19533e-06
1.1953e-06
1.19538e-06
1.19696e-06
1.19721e-06
1.19713e-06
1.19498e-06
1.19203e-06
1.19203e-06
1.19203e-06
1.19203e-06
1.1949e-06
1.19556e-06
1.19543e-06
1.19203e-06
1.19203e-06
1.19203e-06
1.19203e-06
1.19203e-06
1.19203e-06
1.19536e-06
1.1972e-06
1.19736e-06
1.19533e-06
1.19203e-06
1.19203e-06
1.19203e-06
1.19203e-06
1.19203e-06
1.19203e-06
1.19525e-06
1.19692e-06
1.19721e-06
1.1953e-06
1.19203e-06
1.19203e-06
1.19203e-06
1.19203e-06
1.19203e-06
1.19203e-06
1.19521e-06
1.19571e-06
1.19538e-06
1.19203e-06
1.19203e-06
1.19203e-06
1.19203e-06
1.19203e-06
1.19203e-06
1.1953e-06
1.19706e-06
1.19696e-06
1.1949e-06
1.19203e-06
1.19203e-06
1.19203e-06
1.19203e-06
1.19477e-06
1.19549e-06
1.19726e-06
1.19721e-06
1.19556e-06
1.19536e-06
1.19525e-06
1.19521e-06
1.1953e-06
1.19548e-06
1.19704e-06
1.1972e-06
1.19692e-06
1.19571e-06
1.19706e-06
1.19726e-06
1.18039e-06
1.18024e-06
1.18016e-06
1.17846e-06
1.17836e-06
1.17833e-06
1.17841e-06
1.18e-06
1.18025e-06
1.18016e-06
1.17801e-06
1.17506e-06
1.17506e-06
1.17506e-06
1.17506e-06
1.17793e-06
1.17859e-06
1.17846e-06
1.17506e-06
1.17506e-06
1.17506e-06
1.17506e-06
1.17506e-06
1.17506e-06
1.17839e-06
1.18024e-06
1.18039e-06
1.17836e-06
1.17506e-06
1.17506e-06
1.17506e-06
1.17506e-06
1.17506e-06
1.17506e-06
1.17828e-06
1.17996e-06
1.18024e-06
1.17833e-06
1.17506e-06
1.17506e-06
1.17506e-06
1.17506e-06
1.17506e-06
1.17506e-06
1.17824e-06
1.17874e-06
1.17841e-06
1.17506e-06
1.17506e-06
1.17506e-06
1.17506e-06
1.17506e-06
1.17506e-06
1.17833e-06
1.1801e-06
1.18e-06
1.17793e-06
1.17506e-06
1.17506e-06
1.17506e-06
1.17506e-06
1.1778e-06
1.17852e-06
1.18029e-06
1.18025e-06
1.17859e-06
1.17839e-06
1.17828e-06
1.17824e-06
1.17833e-06
1.17852e-06
1.18008e-06
1.18024e-06
1.17996e-06
1.17874e-06
1.1801e-06
1.18029e-06
1.16342e-06
1.16327e-06
1.16319e-06
1.1615e-06
1.16139e-06
1.16137e-06
1.16144e-06
1.16303e-06
1.16328e-06
1.16319e-06
1.16104e-06
1.1581e-06
1.1581e-06
1.1581e-06
1.1581e-06
1.16096e-06
1.16162e-06
1.1615e-06
1.1581e-06
1.1581e-06
1.1581e-06
1.1581e-06
1.1581e-06
1.1581e-06
1.16142e-06
1.16327e-06
1.16342e-06
1.16139e-06
1.1581e-06
1.1581e-06
1.1581e-06
1.1581e-06
1.1581e-06
1.1581e-06
1.16132e-06
1.16299e-06
1.16327e-06
1.16137e-06
1.1581e-06
1.1581e-06
1.1581e-06
1.1581e-06
1.1581e-06
1.1581e-06
1.16128e-06
1.16177e-06
1.16144e-06
1.1581e-06
1.1581e-06
1.1581e-06
1.1581e-06
1.1581e-06
1.1581e-06
1.16136e-06
1.16313e-06
1.16303e-06
1.16096e-06
1.1581e-06
1.1581e-06
1.1581e-06
1.1581e-06
1.16083e-06
1.16155e-06
1.16332e-06
1.16328e-06
1.16162e-06
1.16142e-06
1.16132e-06
1.16128e-06
1.16136e-06
1.16155e-06
1.16311e-06
1.16327e-06
1.16299e-06
1.16177e-06
1.16313e-06
1.16332e-06
1.14646e-06
1.14631e-06
1.14623e-06
1.14453e-06
1.14443e-06
1.1444e-06
1.14448e-06
1.14606e-06
1.14631e-06
1.14623e-06
1.14408e-06
1.14113e-06
1.14113e-06
1.14113e-06
1.14113e-06
1.144e-06
1.14465e-06
1.14453e-06
1.14113e-06
1.14113e-06
1.14113e-06
1.14113e-06
1.14113e-06
1.14113e-06
1.14445e-06
1.1463e-06
1.14645e-06
1.14443e-06
1.14113e-06
1.14113e-06
1.14113e-06
1.14113e-06
1.14113e-06
1.14113e-06
1.14435e-06
1.14602e-06
1.14631e-06
1.1444e-06
1.14113e-06
1.14113e-06
1.14113e-06
1.14113e-06
1.14113e-06
1.14113e-06
1.14431e-06
1.1448e-06
1.14448e-06
1.14113e-06
1.14113e-06
1.14113e-06
1.14113e-06
1.14113e-06
1.14113e-06
1.1444e-06
1.14616e-06
1.14606e-06
1.144e-06
1.14113e-06
1.14113e-06
1.14113e-06
1.14113e-06
1.14386e-06
1.14458e-06
1.14636e-06
1.14631e-06
1.14465e-06
1.14445e-06
1.14435e-06
1.14431e-06
1.1444e-06
1.14458e-06
1.14614e-06
1.1463e-06
1.14602e-06
1.1448e-06
1.14616e-06
1.14636e-06
1.12949e-06
1.12934e-06
1.12926e-06
1.12756e-06
1.12746e-06
1.12743e-06
1.12751e-06
1.12909e-06
1.12934e-06
1.12926e-06
1.12711e-06
1.12416e-06
1.12416e-06
1.12416e-06
1.12416e-06
1.12703e-06
1.12769e-06
1.12756e-06
1.12416e-06
1.12416e-06
1.12416e-06
1.12416e-06
1.12416e-06
1.12416e-06
1.12749e-06
1.12933e-06
1.12948e-06
1.12746e-06
1.12416e-06
1.12416e-06
1.12416e-06
1.12416e-06
1.12416e-06
1.12416e-06
1.12738e-06
1.12905e-06
1.12934e-06
1.12743e-06
1.12416e-06
1.12416e-06
1.12416e-06
1.12416e-06
1.12416e-06
1.12416e-06
1.12734e-06
1.12784e-06
1.12751e-06
1.12416e-06
1.12416e-06
1.12416e-06
1.12416e-06
1.12416e-06
1.12416e-06
1.12743e-06
1.12919e-06
1.12909e-06
1.12703e-06
1.12416e-06
1.12416e-06
1.12416e-06
1.12416e-06
1.1269e-06
1.12762e-06
1.12939e-06
1.12934e-06
1.12769e-06
1.12749e-06
1.12738e-06
1.12734e-06
1.12743e-06
1.12762e-06
1.12917e-06
1.12933e-06
1.12905e-06
1.12784e-06
1.12919e-06
1.12939e-06
1.11252e-06
1.11237e-06
1.11229e-06
1.11059e-06
1.11049e-06
1.11046e-06
1.11054e-06
1.11213e-06
1.11238e-06
1.11229e-06
1.11014e-06
1.10719e-06
1.10719e-06
1.10719e-06
1.10719e-06
1.11006e-06
1.11072e-06
1.11059e-06
1.10719e-06
1.10719e-06
1.10719e-06
1.10719e-06
1.10719e-06
1.10719e-06
1.11052e-06
1.11237e-06
1.11252e-06
1.11049e-06
1.10719e-06
1.10719e-06
1.10719e-06
1.10719e-06
1.10719e-06
1.10719e-06
1.11041e-06
1.11209e-06
1.11237e-06
1.11046e-06
1.10719e-06
1.10719e-06
1.10719e-06
1.10719e-06
1.10719e-06
1.10719e-06
1.11037e-06
1.11087e-06
1.11054e-06
1.10719e-06
1.10719e-06
1.10719e-06
1.10719e-06
1.10719e-06
1.10719e-06
1.11046e-06
1.11223e-06
1.11213e-06
1.11006e-06
1.10719e-06
1.10719e-06
1.10719e-06
1.10719e-06
1.10993e-06
1.11065e-06
1.11242e-06
1.11238e-06
1.11072e-06
1.11052e-06
1.11041e-06
1.11037e-06
1.11046e-06
1.11065e-06
1.11221e-06
1.11237e-06
1.11209e-06
1.11087e-06
1.11223e-06
1.11242e-06
1.09555e-06
1.0954e-06
1.09532e-06
1.09363e-06
1.09352e-06
1.0935e-06
1.09357e-06
1.09516e-06
1.09541e-06
1.09532e-06
1.09317e-06
1.09023e-06
1.09023e-06
1.09023e-06
1.09023e-06
1.09309e-06
1.09375e-06
1.09363e-06
1.09023e-06
1.09023e-06
1.09023e-06
1.09023e-06
1.09023e-06
1.09023e-06
1.09355e-06
1.0954e-06
1.09555e-06
1.09352e-06
1.09023e-06
1.09023e-06
1.09023e-06
1.09023e-06
1.09023e-06
1.09023e-06
1.09345e-06
1.09512e-06
1.0954e-06
1.0935e-06
1.09023e-06
1.09023e-06
1.09023e-06
1.09023e-06
1.09023e-06
1.09023e-06
1.09341e-06
1.0939e-06
1.09357e-06
1.09023e-06
1.09023e-06
1.09023e-06
1.09023e-06
1.09023e-06
1.09023e-06
1.09349e-06
1.09526e-06
1.09516e-06
1.09309e-06
1.09023e-06
1.09023e-06
1.09023e-06
1.09023e-06
1.09296e-06
1.09368e-06
1.09545e-06
1.09541e-06
1.09375e-06
1.09355e-06
1.09345e-06
1.09341e-06
1.09349e-06
1.09368e-06
1.09524e-06
1.0954e-06
1.09512e-06
1.0939e-06
1.09526e-06
1.09546e-06
1.07859e-06
1.07844e-06
1.07836e-06
1.07666e-06
1.07656e-06
1.07653e-06
1.07661e-06
1.07819e-06
1.07844e-06