/*--------------------------------*- C++ -*----------------------------------*\
| =========                 |                                                 |
| \\      /  F ield         | OpenFOAM: The Open Source CFD Toolbox           |
|  \\    /   O peration     | Version:  v2012                                 |
|   \\  /    A nd           | Website:  www.openfoam.com                      |
|    \\/     M anipulation  |                                                 |
\*---------------------------------------------------------------------------*/
FoamFile
{
    version     2.0;
    format      ascii;
    class       volScalarField;
    location    "0.045";
    object      p;
}
// * * * * * * * * * * * * * * * * * * * * * * * * * * * * * * * * * * * * * //

dimensions      [0 2 -2 0 0 0 0];


internalField   nonuniform List<scalar> 
244288
(
2.63427e-06
2.63738e-06
2.63712e-06
2.63627e-06
2.63562e-06
2.63636e-06
2.63717e-06
2.63738e-06
2.63768e-06
2.63766e-06
2.63721e-06
2.6369e-06
2.63726e-06
2.63767e-06
2.63762e-06
2.63712e-06
2.63766e-06
2.63752e-06
2.6371e-06
2.6369e-06
2.63714e-06
2.63755e-06
2.63762e-06
2.637e-06
2.63626e-06
2.6372e-06
2.6371e-06
2.63672e-06
2.63656e-06
2.63676e-06
2.63713e-06
2.63715e-06
2.63604e-06
2.63425e-06
2.63562e-06
2.6369e-06
2.6369e-06
2.63655e-06
2.6364e-06
2.63659e-06
2.63693e-06
2.63682e-06
2.63536e-06
2.63636e-06
2.63725e-06
2.63714e-06
2.63675e-06
2.63659e-06
2.6368e-06
2.63718e-06
2.63721e-06
2.63615e-06
2.63717e-06
2.63767e-06
2.63754e-06
2.63713e-06
2.63693e-06
2.63717e-06
2.63758e-06
2.63764e-06
2.63708e-06
2.63762e-06
2.63762e-06
2.63715e-06
2.63682e-06
2.63721e-06
2.63763e-06
2.63757e-06
2.637e-06
2.63603e-06
2.63535e-06
2.63614e-06
2.63708e-06
2.60028e-06
2.5989e-06
2.60185e-06
2.60007e-06
2.59921e-06
2.59923e-06
2.59926e-06
2.60336e-06
2.60283e-06
2.60185e-06
2.59937e-06
2.59623e-06
2.59588e-06
2.59589e-06
2.59623e-06
2.60144e-06
2.60053e-06
2.60006e-06
2.59622e-06
2.59605e-06
2.59596e-06
2.59596e-06
2.59605e-06
2.59622e-06
2.60133e-06
2.60409e-06
2.60045e-06
2.59922e-06
2.59587e-06
2.59595e-06
2.59598e-06
2.59598e-06
2.59596e-06
2.59589e-06
2.60034e-06
2.60192e-06
2.59865e-06
2.59921e-06
2.59588e-06
2.59595e-06
2.59598e-06
2.59598e-06
2.59596e-06
2.5959e-06
2.60034e-06
2.59827e-06
2.59923e-06
2.59622e-06
2.59605e-06
2.59595e-06
2.59595e-06
2.59605e-06
2.59625e-06
2.60067e-06
2.60051e-06
2.60332e-06
2.60142e-06
2.59622e-06
2.59588e-06
2.59588e-06
2.59621e-06
2.60209e-06
2.60148e-06
2.60438e-06
2.60283e-06
2.60054e-06
2.60133e-06
2.60034e-06
2.60031e-06
2.60062e-06
2.60139e-06
2.60545e-06
2.60412e-06
2.60199e-06
2.59822e-06
2.60042e-06
2.60432e-06
2.57855e-06
2.57871e-06
2.57872e-06
2.576e-06
2.57598e-06
2.57567e-06
2.57612e-06
2.58058e-06
2.58004e-06
2.57871e-06
2.57576e-06
2.5729e-06
2.57249e-06
2.57247e-06
2.57297e-06
2.5805e-06
2.57741e-06
2.576e-06
2.57288e-06
2.57171e-06
2.57162e-06
2.57162e-06
2.57175e-06
2.57302e-06
2.58114e-06
2.58109e-06
2.57868e-06
2.57603e-06
2.57245e-06
2.57161e-06
2.57152e-06
2.57153e-06
2.57163e-06
2.57249e-06
2.58018e-06
2.5793e-06
2.57855e-06
2.57568e-06
2.57247e-06
2.57163e-06
2.57152e-06
2.57152e-06
2.57164e-06
2.5725e-06
2.57959e-06
2.57532e-06
2.57611e-06
2.57303e-06
2.57176e-06
2.57162e-06
2.57161e-06
2.57175e-06
2.57304e-06
2.58084e-06
2.58017e-06
2.5806e-06
2.5805e-06
2.57299e-06
2.57245e-06
2.57243e-06
2.57297e-06
2.58296e-06
2.57961e-06
2.5805e-06
2.58003e-06
2.57738e-06
2.58112e-06
2.58015e-06
2.57956e-06
2.58082e-06
2.57967e-06
2.582e-06
2.58106e-06
2.57919e-06
2.57534e-06
2.58012e-06
2.58055e-06
2.55108e-06
2.55116e-06
2.55159e-06
2.54847e-06
2.54845e-06
2.54805e-06
2.5487e-06
2.55366e-06
2.55295e-06
2.55153e-06
2.54741e-06
2.54389e-06
2.54374e-06
2.54374e-06
2.54396e-06
2.5529e-06
2.55057e-06
2.54846e-06
2.54389e-06
2.54366e-06
2.54364e-06
2.54364e-06
2.54369e-06
2.54395e-06
2.55477e-06
2.55411e-06
2.55111e-06
2.54847e-06
2.54373e-06
2.54363e-06
2.54364e-06
2.54364e-06
2.54365e-06
2.54375e-06
2.5543e-06
2.55195e-06
2.55112e-06
2.54806e-06
2.54374e-06
2.54364e-06
2.54364e-06
2.54364e-06
2.54365e-06
2.54376e-06
2.55375e-06
2.54808e-06
2.5487e-06
2.54396e-06
2.54369e-06
2.54364e-06
2.54365e-06
2.54369e-06
2.54397e-06
2.55481e-06
2.55286e-06
2.55368e-06
2.55289e-06
2.54394e-06
2.54374e-06
2.54374e-06
2.54395e-06
2.55675e-06
2.55272e-06
2.55364e-06
2.55295e-06
2.55055e-06
2.55475e-06
2.55431e-06
2.55376e-06
2.55485e-06
2.55287e-06
2.55476e-06
2.55408e-06
2.55191e-06
2.54811e-06
2.55289e-06
2.55372e-06
2.52466e-06
2.52475e-06
2.52461e-06
2.52135e-06
2.52142e-06
2.52093e-06
2.52171e-06
2.52685e-06
2.52604e-06
2.52462e-06
2.51914e-06
2.5156e-06
2.51558e-06
2.51559e-06
2.51563e-06
2.52524e-06
2.52381e-06
2.52135e-06
2.5156e-06
2.51557e-06
2.51558e-06
2.51558e-06
2.51558e-06
2.51563e-06
2.52815e-06
2.52746e-06
2.52478e-06
2.52142e-06
2.51558e-06
2.51558e-06
2.51559e-06
2.51559e-06
2.51558e-06
2.51559e-06
2.52837e-06
2.52548e-06
2.52477e-06
2.52092e-06
2.51558e-06
2.51558e-06
2.51559e-06
2.51559e-06
2.51558e-06
2.51559e-06
2.52794e-06
2.52168e-06
2.52172e-06
2.51563e-06
2.51558e-06
2.51558e-06
2.51558e-06
2.51558e-06
2.51563e-06
2.52856e-06
2.52637e-06
2.52686e-06
2.52522e-06
2.51562e-06
2.51559e-06
2.51559e-06
2.51563e-06
2.53021e-06
2.52598e-06
2.52693e-06
2.52602e-06
2.5238e-06
2.52815e-06
2.52838e-06
2.52797e-06
2.52862e-06
2.52618e-06
2.52793e-06
2.52744e-06
2.52549e-06
2.5217e-06
2.52639e-06
2.52701e-06
2.49743e-06
2.49762e-06
2.49728e-06
2.49394e-06
2.49399e-06
2.49346e-06
2.49433e-06
2.49956e-06
2.49871e-06
2.49732e-06
2.49134e-06
2.48776e-06
2.48777e-06
2.48777e-06
2.48777e-06
2.49755e-06
2.49648e-06
2.49394e-06
2.48775e-06
2.48776e-06
2.48777e-06
2.48777e-06
2.48777e-06
2.48777e-06
2.50083e-06
2.50019e-06
2.49755e-06
2.49398e-06
2.48776e-06
2.48777e-06
2.48777e-06
2.48777e-06
2.48777e-06
2.48777e-06
2.50125e-06
2.49828e-06
2.49765e-06
2.49346e-06
2.48776e-06
2.48777e-06
2.48778e-06
2.48778e-06
2.48777e-06
2.48778e-06
2.50087e-06
2.49453e-06
2.49431e-06
2.48781e-06
2.48778e-06
2.48778e-06
2.48778e-06
2.48777e-06
2.48778e-06
2.50136e-06
2.49916e-06
2.49958e-06
2.49759e-06
2.48779e-06
2.48778e-06
2.48778e-06
2.48778e-06
2.50295e-06
2.4987e-06
2.4997e-06
2.49872e-06
2.4965e-06
2.50085e-06
2.50127e-06
2.50089e-06
2.5014e-06
2.49889e-06
2.50062e-06
2.50018e-06
2.49829e-06
2.49454e-06
2.49917e-06
2.49972e-06
2.46993e-06
2.47009e-06
2.46959e-06
2.46634e-06
2.46639e-06
2.46585e-06
2.46675e-06
2.47199e-06
2.47114e-06
2.46973e-06
2.46368e-06
2.46006e-06
2.46005e-06
2.46006e-06
2.46006e-06
2.4699e-06
2.46893e-06
2.46634e-06
2.46006e-06
2.46006e-06
2.46006e-06
2.46006e-06
2.46006e-06
2.46006e-06
2.47326e-06
2.47262e-06
2.47005e-06
2.46639e-06
2.46007e-06
2.46007e-06
2.46007e-06
2.46007e-06
2.46006e-06
2.46006e-06
2.47373e-06
2.47073e-06
2.47001e-06
2.46585e-06
2.46008e-06
2.46008e-06
2.46007e-06
2.46007e-06
2.46006e-06
2.46006e-06
2.47336e-06
2.46702e-06
2.46675e-06
2.46008e-06
2.46008e-06
2.46007e-06
2.46007e-06
2.46006e-06
2.46006e-06
2.47382e-06
2.47161e-06
2.47204e-06
2.46993e-06
2.46008e-06
2.46007e-06
2.46007e-06
2.46006e-06
2.47542e-06
2.47116e-06
2.47213e-06
2.47117e-06
2.46898e-06
2.47331e-06
2.47378e-06
2.4734e-06
2.47387e-06
2.47133e-06
2.47304e-06
2.47266e-06
2.47076e-06
2.46703e-06
2.47164e-06
2.47217e-06
2.44232e-06
2.44248e-06
2.44196e-06
2.43872e-06
2.43877e-06
2.43823e-06
2.43912e-06
2.44436e-06
2.4435e-06
2.44212e-06
2.43595e-06
2.43239e-06
2.43239e-06
2.43239e-06
2.43239e-06
2.44224e-06
2.44131e-06
2.4387e-06
2.43239e-06
2.43239e-06
2.43239e-06
2.43239e-06
2.43239e-06
2.43239e-06
2.44565e-06
2.44499e-06
2.44235e-06
2.43876e-06
2.43239e-06
2.43239e-06
2.43239e-06
2.43239e-06
2.43239e-06
2.43239e-06
2.44612e-06
2.44311e-06
2.44251e-06
2.43822e-06
2.43239e-06
2.43239e-06
2.43239e-06
2.43239e-06
2.43239e-06
2.43239e-06
2.44575e-06
2.43938e-06
2.43911e-06
2.43239e-06
2.43239e-06
2.43239e-06
2.43239e-06
2.43239e-06
2.43239e-06
2.4462e-06
2.44398e-06
2.44437e-06
2.44226e-06
2.43239e-06
2.43239e-06
2.43239e-06
2.43239e-06
2.44779e-06
2.44353e-06
2.4445e-06
2.44351e-06
2.44131e-06
2.44566e-06
2.44616e-06
2.44578e-06
2.44624e-06
2.44369e-06
2.44541e-06
2.44503e-06
2.44314e-06
2.43942e-06
2.44401e-06
2.44452e-06
2.41468e-06
2.41483e-06
2.41432e-06
2.41107e-06
2.41112e-06
2.41056e-06
2.41146e-06
2.41672e-06
2.41586e-06
2.41446e-06
2.40829e-06
2.40473e-06
2.40472e-06
2.40472e-06
2.40472e-06
2.41459e-06
2.41367e-06
2.41101e-06
2.40473e-06
2.40473e-06
2.40472e-06
2.40472e-06
2.40472e-06
2.40472e-06
2.41799e-06
2.41735e-06
2.41467e-06
2.41118e-06
2.40472e-06
2.40472e-06
2.40472e-06
2.40472e-06
2.40472e-06
2.40472e-06
2.41847e-06
2.41547e-06
2.41472e-06
2.41058e-06
2.40471e-06
2.40472e-06
2.40472e-06
2.40472e-06
2.40472e-06
2.40472e-06
2.4181e-06
2.41175e-06
2.41143e-06
2.40471e-06
2.40471e-06
2.40472e-06
2.40472e-06
2.40472e-06
2.40472e-06
2.41855e-06
2.41634e-06
2.41671e-06
2.41457e-06
2.40472e-06
2.40472e-06
2.40472e-06
2.40472e-06
2.42014e-06
2.41589e-06
2.41685e-06
2.41585e-06
2.41363e-06
2.41798e-06
2.41849e-06
2.41811e-06
2.41858e-06
2.41604e-06
2.41777e-06
2.41735e-06
2.41546e-06
2.41174e-06
2.41635e-06
2.41686e-06
2.38702e-06
2.38718e-06
2.38666e-06
2.38341e-06
2.38346e-06
2.3829e-06
2.3838e-06
2.38906e-06
2.3882e-06
2.38681e-06
2.38064e-06
2.37706e-06
2.37706e-06
2.37706e-06
2.37706e-06
2.38693e-06
2.386e-06
2.38342e-06
2.37707e-06
2.37706e-06
2.37706e-06
2.37706e-06
2.37706e-06
2.37706e-06
2.39033e-06
2.38969e-06
2.38706e-06
2.38349e-06
2.37706e-06
2.37706e-06
2.37706e-06
2.37706e-06
2.37706e-06
2.37705e-06
2.39081e-06
2.38781e-06
2.38699e-06
2.38289e-06
2.37705e-06
2.37705e-06
2.37705e-06
2.37705e-06
2.37705e-06
2.37705e-06
2.39044e-06
2.38409e-06
2.38374e-06
2.37705e-06
2.37705e-06
2.37705e-06
2.37705e-06
2.37705e-06
2.37705e-06
2.39089e-06
2.38867e-06
2.38903e-06
2.3869e-06
2.37705e-06
2.37705e-06
2.37705e-06
2.37705e-06
2.39249e-06
2.38823e-06
2.38919e-06
2.38817e-06
2.38596e-06
2.39033e-06
2.39083e-06
2.39046e-06
2.39092e-06
2.38838e-06
2.39011e-06
2.38968e-06
2.3878e-06
2.38409e-06
2.38869e-06
2.3892e-06
2.35936e-06
2.35953e-06
2.359e-06
2.35574e-06
2.35579e-06
2.35524e-06
2.35614e-06
2.36139e-06
2.36054e-06
2.35914e-06
2.35299e-06
2.34939e-06
2.34939e-06
2.34939e-06
2.34939e-06
2.35926e-06
2.35834e-06
2.35569e-06
2.3494e-06
2.34939e-06
2.34939e-06
2.34939e-06
2.34939e-06
2.34939e-06
2.36266e-06
2.36202e-06
2.35928e-06
2.35581e-06
2.34939e-06
2.34939e-06
2.34939e-06
2.34939e-06
2.34939e-06
2.34939e-06
2.36315e-06
2.36014e-06
2.35942e-06
2.35524e-06
2.34939e-06
2.34939e-06
2.34939e-06
2.34939e-06
2.34939e-06
2.34939e-06
2.36278e-06
2.35643e-06
2.35611e-06
2.34939e-06
2.34938e-06
2.34939e-06
2.34939e-06
2.34939e-06
2.34939e-06
2.36322e-06
2.36101e-06
2.36139e-06
2.35925e-06
2.34938e-06
2.34939e-06
2.34939e-06
2.34939e-06
2.36482e-06
2.36057e-06
2.36153e-06
2.36052e-06
2.35833e-06
2.36267e-06
2.36315e-06
2.36279e-06
2.36326e-06
2.36072e-06
2.36244e-06
2.36203e-06
2.36014e-06
2.35643e-06
2.36103e-06
2.36153e-06
2.33168e-06
2.33183e-06
2.33133e-06
2.32807e-06
2.32812e-06
2.32757e-06
2.32847e-06
2.33372e-06
2.33287e-06
2.33147e-06
2.32531e-06
2.32172e-06
2.32172e-06
2.32172e-06
2.32172e-06
2.33159e-06
2.33067e-06
2.32806e-06
2.32172e-06
2.32172e-06
2.32172e-06
2.32172e-06
2.32172e-06
2.32172e-06
2.335e-06
2.33436e-06
2.33168e-06
2.32812e-06
2.32172e-06
2.32172e-06
2.32172e-06
2.32172e-06
2.32172e-06
2.32172e-06
2.33548e-06
2.33248e-06
2.33186e-06
2.32756e-06
2.32172e-06
2.32172e-06
2.32172e-06
2.32172e-06
2.32172e-06
2.32172e-06
2.33511e-06
2.32875e-06
2.32845e-06
2.32172e-06
2.32172e-06
2.32172e-06
2.32172e-06
2.32172e-06
2.32172e-06
2.33556e-06
2.33335e-06
2.33373e-06
2.33159e-06
2.32172e-06
2.32172e-06
2.32172e-06
2.32172e-06
2.33715e-06
2.3329e-06
2.33386e-06
2.33286e-06
2.33066e-06
2.33501e-06
2.3355e-06
2.33514e-06
2.3356e-06
2.33305e-06
2.33478e-06
2.33436e-06
2.33249e-06
2.32878e-06
2.33335e-06
2.33386e-06
2.30401e-06
2.30417e-06
2.30365e-06
2.30039e-06
2.30044e-06
2.29989e-06
2.30079e-06
2.30605e-06
2.3052e-06
2.30379e-06
2.29764e-06
2.29405e-06
2.29405e-06
2.29405e-06
2.29405e-06
2.30392e-06
2.303e-06
2.3004e-06
2.29405e-06
2.29405e-06
2.29405e-06
2.29405e-06
2.29405e-06
2.29405e-06
2.30733e-06
2.30669e-06
2.30404e-06
2.30046e-06
2.29405e-06
2.29405e-06
2.29405e-06
2.29405e-06
2.29405e-06
2.29406e-06
2.30781e-06
2.30481e-06
2.3042e-06
2.29992e-06
2.29406e-06
2.29406e-06
2.29406e-06
2.29406e-06
2.29406e-06
2.29406e-06
2.30745e-06
2.30109e-06
2.30077e-06
2.29406e-06
2.29406e-06
2.29406e-06
2.29406e-06
2.29406e-06
2.29406e-06
2.30789e-06
2.30568e-06
2.30606e-06
2.30393e-06
2.29406e-06
2.29406e-06
2.29406e-06
2.29406e-06
2.3095e-06
2.30524e-06
2.3062e-06
2.30519e-06
2.30301e-06
2.30735e-06
2.30783e-06
2.30747e-06
2.30794e-06
2.30539e-06
2.30712e-06
2.30669e-06
2.30482e-06
2.3011e-06
2.3057e-06
2.30621e-06
2.27634e-06
2.2765e-06
2.27597e-06
2.27273e-06
2.27277e-06
2.27222e-06
2.27313e-06
2.27838e-06
2.27753e-06
2.27612e-06
2.26997e-06
2.26638e-06
2.26638e-06
2.26638e-06
2.26638e-06
2.27625e-06
2.27534e-06
2.27271e-06
2.26637e-06
2.26638e-06
2.26638e-06
2.26638e-06
2.26639e-06
2.26639e-06
2.27966e-06
2.27902e-06
2.27647e-06
2.27276e-06
2.26638e-06
2.26638e-06
2.26639e-06
2.26639e-06
2.26639e-06
2.26639e-06
2.28015e-06
2.27714e-06
2.27638e-06
2.27223e-06
2.26639e-06
2.26639e-06
2.26639e-06
2.26639e-06
2.26639e-06
2.26639e-06
2.27978e-06
2.27342e-06
2.27312e-06
2.2664e-06
2.26639e-06
2.26639e-06
2.26639e-06
2.26639e-06
2.26639e-06
2.28023e-06
2.27802e-06
2.27842e-06
2.27627e-06
2.26639e-06
2.26639e-06
2.26639e-06
2.26639e-06
2.28183e-06
2.27757e-06
2.27853e-06
2.27754e-06
2.27536e-06
2.2797e-06
2.28019e-06
2.27982e-06
2.28028e-06
2.27773e-06
2.27945e-06
2.27905e-06
2.27716e-06
2.27344e-06
2.27805e-06
2.27855e-06
2.24867e-06
2.24883e-06
2.24831e-06
2.24506e-06
2.24511e-06
2.24456e-06
2.24546e-06
2.25072e-06
2.24986e-06
2.24846e-06
2.24229e-06
2.23871e-06
2.23872e-06
2.23872e-06
2.23872e-06
2.24859e-06
2.24767e-06
2.24505e-06
2.23872e-06
2.23872e-06
2.23872e-06
2.23872e-06
2.23872e-06
2.23872e-06
2.25199e-06
2.25135e-06
2.2488e-06
2.24511e-06
2.23872e-06
2.23872e-06
2.23872e-06
2.23872e-06
2.23872e-06
2.23872e-06
2.25248e-06
2.24948e-06
2.24891e-06
2.24456e-06
2.23872e-06
2.23873e-06
2.23872e-06
2.23872e-06
2.23872e-06
2.23872e-06
2.25211e-06
2.24576e-06
2.24542e-06
2.23873e-06
2.23873e-06
2.23872e-06
2.23872e-06
2.23872e-06
2.23873e-06
2.25256e-06
2.25035e-06
2.25074e-06
2.2486e-06
2.23873e-06
2.23872e-06
2.23872e-06
2.23872e-06
2.25416e-06
2.24991e-06
2.25086e-06
2.24987e-06
2.24766e-06
2.25202e-06
2.25252e-06
2.25215e-06
2.25261e-06
2.25006e-06
2.25178e-06
2.25138e-06
2.24949e-06
2.24577e-06
2.25038e-06
2.25089e-06
2.22102e-06
2.22119e-06
2.22065e-06
2.2174e-06
2.21745e-06
2.2169e-06
2.2178e-06
2.22305e-06
2.2222e-06
2.22079e-06
2.21463e-06
2.21105e-06
2.21105e-06
2.21105e-06
2.21106e-06
2.22093e-06
2.22001e-06
2.21737e-06
2.21105e-06
2.21105e-06
2.21105e-06
2.21105e-06
2.21106e-06
2.21106e-06
2.22433e-06
2.22369e-06
2.22108e-06
2.21746e-06
2.21106e-06
2.21105e-06
2.21105e-06
2.21106e-06
2.21106e-06
2.21106e-06
2.22481e-06
2.22181e-06
2.2211e-06
2.2169e-06
2.21105e-06
2.21106e-06
2.21106e-06
2.21106e-06
2.21106e-06
2.21106e-06
2.22445e-06
2.21809e-06
2.21779e-06
2.21106e-06
2.21106e-06
2.21106e-06
2.21106e-06
2.21106e-06
2.21106e-06
2.2249e-06
2.22268e-06
2.22307e-06
2.22091e-06
2.21106e-06
2.21106e-06
2.21106e-06
2.21105e-06
2.2265e-06
2.22224e-06
2.2232e-06
2.22221e-06
2.22e-06
2.22435e-06
2.22483e-06
2.22446e-06
2.22493e-06
2.22239e-06
2.22412e-06
2.22374e-06
2.22181e-06
2.21809e-06
2.22271e-06
2.22323e-06
2.19334e-06
2.19351e-06
2.19298e-06
2.18973e-06
2.18978e-06
2.18923e-06
2.19013e-06
2.19539e-06
2.19453e-06
2.19313e-06
2.18696e-06
2.18338e-06
2.18339e-06
2.18339e-06
2.18339e-06
2.19326e-06
2.19234e-06
2.18971e-06
2.18339e-06
2.18338e-06
2.18339e-06
2.18339e-06
2.18339e-06
2.18339e-06
2.19666e-06
2.19602e-06
2.19334e-06
2.18978e-06
2.18338e-06
2.18339e-06
2.18339e-06
2.18339e-06
2.18339e-06
2.18339e-06
2.19715e-06
2.19415e-06
2.19352e-06
2.18923e-06
2.18338e-06
2.18339e-06
2.18339e-06
2.18339e-06
2.18339e-06
2.18339e-06
2.19678e-06
2.19043e-06
2.19012e-06
2.18338e-06
2.18339e-06
2.18339e-06
2.18339e-06
2.18339e-06
2.18339e-06
2.19723e-06
2.19501e-06
2.1954e-06
2.19325e-06
2.18338e-06
2.18339e-06
2.1834e-06
2.1834e-06
2.19883e-06
2.19457e-06
2.19553e-06
2.19454e-06
2.19232e-06
2.19667e-06
2.19714e-06
2.1968e-06
2.19726e-06
2.19473e-06
2.19644e-06
2.19602e-06
2.19416e-06
2.19041e-06
2.195e-06
2.19553e-06
2.16568e-06
2.16583e-06
2.16532e-06
2.16207e-06
2.16212e-06
2.16156e-06
2.16246e-06
2.16772e-06
2.16687e-06
2.16546e-06
2.1593e-06
2.15572e-06
2.15572e-06
2.15572e-06
2.15572e-06
2.16559e-06
2.16467e-06
2.16205e-06
2.15572e-06
2.15572e-06
2.15572e-06
2.15572e-06
2.15572e-06
2.15572e-06
2.169e-06
2.16836e-06
2.16564e-06
2.16211e-06
2.15572e-06
2.15572e-06
2.15572e-06
2.15572e-06
2.15572e-06
2.15572e-06
2.16949e-06
2.16648e-06
2.16585e-06
2.16156e-06
2.15572e-06
2.15572e-06
2.15572e-06
2.15572e-06
2.15573e-06
2.15573e-06
2.16913e-06
2.16277e-06
2.16245e-06
2.15571e-06
2.15571e-06
2.15572e-06
2.15573e-06
2.15573e-06
2.15573e-06
2.16958e-06
2.16736e-06
2.16772e-06
2.16558e-06
2.15571e-06
2.15572e-06
2.15573e-06
2.15574e-06
2.17118e-06
2.16692e-06
2.16788e-06
2.16685e-06
2.16465e-06
2.16899e-06
2.16945e-06
2.16913e-06
2.1696e-06
2.16708e-06
2.16878e-06
2.16837e-06
2.16656e-06
2.16268e-06
2.16735e-06
2.1679e-06
2.13802e-06
2.13818e-06
2.13765e-06
2.1344e-06
2.13445e-06
2.1339e-06
2.1348e-06
2.14005e-06
2.1392e-06
2.1378e-06
2.13163e-06
2.12805e-06
2.12805e-06
2.12805e-06
2.12806e-06
2.13793e-06
2.13701e-06
2.13438e-06
2.12805e-06
2.12805e-06
2.12805e-06
2.12805e-06
2.12806e-06
2.12806e-06
2.14133e-06
2.14069e-06
2.13797e-06
2.13445e-06
2.12805e-06
2.12805e-06
2.12805e-06
2.12806e-06
2.12806e-06
2.12806e-06
2.14181e-06
2.13881e-06
2.13807e-06
2.13388e-06
2.12805e-06
2.12805e-06
2.12805e-06
2.12806e-06
2.12806e-06
2.12806e-06
2.14145e-06
2.13509e-06
2.13478e-06
2.12805e-06
2.12805e-06
2.12805e-06
2.12806e-06
2.12806e-06
2.12806e-06
2.1419e-06
2.13969e-06
2.14005e-06
2.13792e-06
2.12805e-06
2.12805e-06
2.12806e-06
2.12806e-06
2.14351e-06
2.13924e-06
2.1402e-06
2.13919e-06
2.137e-06
2.14133e-06
2.14179e-06
2.14145e-06
2.14194e-06
2.13941e-06
2.14112e-06
2.14068e-06
2.13889e-06
2.13509e-06
2.13968e-06
2.14019e-06
2.11035e-06
2.1105e-06
2.10999e-06
2.10673e-06
2.10678e-06
2.10623e-06
2.10713e-06
2.11238e-06
2.11153e-06
2.11013e-06
2.10397e-06
2.10039e-06
2.10039e-06
2.10039e-06
2.10038e-06
2.11026e-06
2.10934e-06
2.10671e-06
2.10039e-06
2.10039e-06
2.10039e-06
2.10039e-06
2.10038e-06
2.10038e-06
2.11366e-06
2.11302e-06
2.11031e-06
2.10679e-06
2.10039e-06
2.10039e-06
2.10039e-06
2.10038e-06
2.10038e-06
2.10038e-06
2.11414e-06
2.11114e-06
2.11046e-06
2.10622e-06
2.10039e-06
2.10039e-06
2.10039e-06
2.10038e-06
2.10038e-06
2.10038e-06
2.11377e-06
2.10741e-06
2.10712e-06
2.10039e-06
2.10039e-06
2.10039e-06
2.10038e-06
2.10038e-06
2.10038e-06
2.11423e-06
2.11201e-06
2.11239e-06
2.11025e-06
2.1004e-06
2.10039e-06
2.10038e-06
2.10037e-06
2.11582e-06
2.11157e-06
2.11252e-06
2.11153e-06
2.10933e-06
2.11366e-06
2.11419e-06
2.11384e-06
2.11427e-06
2.11172e-06
2.11343e-06
2.11302e-06
2.11111e-06
2.10748e-06
2.11205e-06
2.11256e-06
2.08267e-06
2.08283e-06
2.08232e-06
2.07907e-06
2.07912e-06
2.07856e-06
2.07945e-06
2.08471e-06
2.08386e-06
2.08247e-06
2.0763e-06
2.07272e-06
2.07272e-06
2.07272e-06
2.07272e-06
2.08259e-06
2.08167e-06
2.07905e-06
2.07272e-06
2.07272e-06
2.07272e-06
2.07272e-06
2.07272e-06
2.07272e-06
2.08599e-06
2.08535e-06
2.08265e-06
2.07912e-06
2.07272e-06
2.07272e-06
2.07272e-06
2.07272e-06
2.07272e-06
2.07272e-06
2.08648e-06
2.08347e-06
2.0828e-06
2.07856e-06
2.07272e-06
2.07272e-06
2.07272e-06
2.07272e-06
2.07272e-06
2.07272e-06
2.0861e-06
2.07975e-06
2.07947e-06
2.07272e-06
2.07272e-06
2.07272e-06
2.07272e-06
2.07272e-06
2.07271e-06
2.08655e-06
2.08433e-06
2.08473e-06
2.08259e-06
2.07273e-06
2.07272e-06
2.07272e-06
2.07271e-06
2.08815e-06
2.08389e-06
2.08485e-06
2.08388e-06
2.08167e-06
2.086e-06
2.08656e-06
2.08615e-06
2.08659e-06
2.08406e-06
2.08576e-06
2.08535e-06
2.0834e-06
2.07987e-06
2.08434e-06
2.0849e-06
2.05501e-06
2.05515e-06
2.05465e-06
2.0514e-06
2.05146e-06
2.05089e-06
2.05179e-06
2.05705e-06
2.05619e-06
2.0548e-06
2.04863e-06
2.04506e-06
2.04505e-06
2.04505e-06
2.04505e-06
2.05492e-06
2.054e-06
2.05138e-06
2.04505e-06
2.04505e-06
2.04505e-06
2.04505e-06
2.04505e-06
2.04505e-06
2.05833e-06
2.05769e-06
2.05499e-06
2.05145e-06
2.04506e-06
2.04505e-06
2.04505e-06
2.04505e-06
2.04506e-06
2.04506e-06
2.05882e-06
2.05581e-06
2.05518e-06
2.0509e-06
2.04505e-06
2.04505e-06
2.04505e-06
2.04506e-06
2.04506e-06
2.04506e-06
2.05844e-06
2.05209e-06
2.0518e-06
2.04505e-06
2.04505e-06
2.04505e-06
2.04506e-06
2.04506e-06
2.04506e-06
2.0589e-06
2.05668e-06
2.05707e-06
2.05492e-06
2.04505e-06
2.04505e-06
2.04506e-06
2.04507e-06
2.06049e-06
2.05624e-06
2.05719e-06
2.0562e-06
2.05399e-06
2.05833e-06
2.05879e-06
2.05845e-06
2.05893e-06
2.0564e-06
2.0581e-06
2.05771e-06
2.05588e-06
2.05201e-06
2.05665e-06
2.05719e-06
2.02734e-06
2.02749e-06
2.02698e-06
2.02373e-06
2.02379e-06
2.02322e-06
2.02412e-06
2.02939e-06
2.02853e-06
2.02713e-06
2.02097e-06
2.01739e-06
2.01739e-06
2.01739e-06
2.01739e-06
2.02726e-06
2.02634e-06
2.02372e-06
2.01739e-06
2.01739e-06
2.01739e-06
2.01739e-06
2.01739e-06
2.01739e-06
2.03066e-06
2.03002e-06
2.02731e-06
2.02378e-06
2.01739e-06
2.01739e-06
2.01739e-06
2.01739e-06
2.01739e-06
2.01739e-06
2.03115e-06
2.02815e-06
2.0275e-06
2.02323e-06
2.01739e-06
2.01739e-06
2.01739e-06
2.01739e-06
2.01739e-06
2.01739e-06
2.03078e-06
2.02442e-06
2.02413e-06
2.01738e-06
2.01739e-06
2.01739e-06
2.01739e-06
2.01739e-06
2.01739e-06
2.03124e-06
2.02902e-06
2.0294e-06
2.02726e-06
2.01738e-06
2.01739e-06
2.01739e-06
2.0174e-06
2.03283e-06
2.02858e-06
2.02953e-06
2.02853e-06
2.02633e-06
2.03067e-06
2.03113e-06
2.03078e-06
2.03128e-06
2.02874e-06
2.03045e-06
2.03003e-06
2.02823e-06
2.02443e-06
2.02901e-06
2.02952e-06
1.99963e-06
1.9998e-06
1.99932e-06
1.99608e-06
1.99612e-06
1.99555e-06
1.99645e-06
2.00172e-06
2.00086e-06
1.99947e-06
1.9933e-06
1.98972e-06
1.98972e-06
1.98972e-06
1.98972e-06
1.99958e-06
1.99867e-06
1.99605e-06
1.98972e-06
1.98972e-06
1.98972e-06
1.98972e-06
1.98972e-06
1.98972e-06
2.00299e-06
2.00235e-06
1.99966e-06
1.99612e-06
1.98972e-06
1.98972e-06
1.98972e-06
1.98972e-06
1.98972e-06
1.98972e-06
2.00348e-06
2.00047e-06
1.99981e-06
1.99555e-06
1.98972e-06
1.98972e-06
1.98972e-06
1.98972e-06
1.98971e-06
1.98972e-06
2.0031e-06
1.99674e-06
1.99647e-06
1.98973e-06
1.98972e-06
1.98972e-06
1.98971e-06
1.98971e-06
1.98971e-06
2.00355e-06
2.00134e-06
2.00174e-06
1.99958e-06
1.98973e-06
1.98972e-06
1.98971e-06
1.98971e-06
2.00515e-06
2.00089e-06
2.00185e-06
2.00087e-06
1.99866e-06
2.00299e-06
2.00351e-06
2.00317e-06
2.00361e-06
2.00104e-06
2.00276e-06
2.00234e-06
2.00045e-06
1.9968e-06
2.00137e-06
2.00189e-06
1.97197e-06
1.97214e-06
1.97165e-06
1.96841e-06
1.96845e-06
1.96789e-06
1.96879e-06
1.97406e-06
1.9732e-06
1.9718e-06
1.96563e-06
1.96205e-06
1.96205e-06
1.96205e-06
1.96205e-06
1.97192e-06
1.971e-06
1.96839e-06
1.96205e-06
1.96205e-06
1.96205e-06
1.96205e-06
1.96205e-06
1.96205e-06
1.97532e-06
1.97468e-06
1.97197e-06
1.96844e-06
1.96205e-06
1.96205e-06
1.96205e-06
1.96205e-06
1.96205e-06
1.96205e-06
1.97581e-06
1.9728e-06
1.97216e-06
1.96789e-06
1.96205e-06
1.96205e-06
1.96205e-06
1.96205e-06
1.96205e-06
1.96204e-06
1.97543e-06
1.96908e-06
1.96881e-06
1.96206e-06
1.96206e-06
1.96206e-06
1.96205e-06
1.96204e-06
1.96204e-06
1.97588e-06
1.97367e-06
1.97408e-06
1.97191e-06
1.96206e-06
1.96206e-06
1.96205e-06
1.96204e-06
1.97748e-06
1.9732e-06
1.97418e-06
1.97322e-06
1.971e-06
1.97532e-06
1.97583e-06
1.97549e-06
1.97592e-06
1.97338e-06
1.97508e-06
1.9747e-06
1.97271e-06
1.96917e-06
1.97367e-06
1.9742e-06
1.94436e-06
1.94452e-06
1.94398e-06
1.94074e-06
1.94078e-06
1.94023e-06
1.94114e-06
1.9464e-06
1.94554e-06
1.94413e-06
1.93796e-06
1.93439e-06
1.93438e-06
1.93439e-06
1.93439e-06
1.94426e-06
1.94334e-06
1.94071e-06
1.93438e-06
1.93439e-06
1.93438e-06
1.93438e-06
1.93438e-06
1.93438e-06
1.94766e-06
1.94701e-06
1.9443e-06
1.94078e-06
1.93439e-06
1.93439e-06
1.93438e-06
1.93438e-06
1.93438e-06
1.93438e-06
1.94814e-06
1.94514e-06
1.9445e-06
1.94022e-06
1.93439e-06
1.93439e-06
1.93438e-06
1.93438e-06
1.93438e-06
1.93438e-06
1.94777e-06
1.94142e-06
1.94113e-06
1.93439e-06
1.93439e-06
1.93438e-06
1.93438e-06
1.93438e-06
1.93438e-06
1.94822e-06
1.946e-06
1.9464e-06
1.94423e-06
1.93438e-06
1.93438e-06
1.93438e-06
1.93438e-06
1.94981e-06
1.94555e-06
1.94652e-06
1.94554e-06
1.94331e-06
1.94765e-06
1.94822e-06
1.94781e-06
1.94826e-06
1.94572e-06
1.94742e-06
1.94699e-06
1.9451e-06
1.94148e-06
1.94604e-06
1.94655e-06
1.91664e-06
1.91684e-06
1.91632e-06
1.91307e-06
1.91312e-06
1.91256e-06
1.91347e-06
1.91872e-06
1.91786e-06
1.91646e-06
1.91029e-06
1.90672e-06
1.90672e-06
1.90672e-06
1.90672e-06
1.91659e-06
1.91567e-06
1.91304e-06
1.90672e-06
1.90672e-06
1.90672e-06
1.90672e-06
1.90672e-06
1.90672e-06
1.91999e-06
1.91935e-06
1.91668e-06
1.91312e-06
1.90671e-06
1.90672e-06
1.90672e-06
1.90672e-06
1.90672e-06
1.90672e-06
1.92048e-06
1.91747e-06
1.91684e-06
1.91256e-06
1.90672e-06
1.90672e-06
1.90672e-06
1.90672e-06
1.90672e-06
1.90672e-06
1.92011e-06
1.91375e-06
1.91345e-06
1.90672e-06
1.90671e-06
1.90671e-06
1.90671e-06
1.90671e-06
1.90671e-06
1.92055e-06
1.91834e-06
1.91872e-06
1.91655e-06
1.90671e-06
1.90672e-06
1.90672e-06
1.90672e-06
1.92215e-06
1.91788e-06
1.91885e-06
1.91787e-06
1.91564e-06
1.91999e-06
1.9205e-06
1.92012e-06
1.92058e-06
1.91805e-06
1.91976e-06
1.91935e-06
1.91747e-06
1.91376e-06
1.91836e-06
1.91887e-06
1.88902e-06
1.88917e-06
1.88866e-06
1.88542e-06
1.88546e-06
1.8849e-06
1.8858e-06
1.89105e-06
1.8902e-06
1.8888e-06
1.88261e-06
1.87906e-06
1.87906e-06
1.87906e-06
1.87905e-06
1.88893e-06
1.888e-06
1.88536e-06
1.87906e-06
1.87906e-06
1.87906e-06
1.87905e-06
1.87905e-06
1.87905e-06
1.89232e-06
1.89168e-06
1.88905e-06
1.8855e-06
1.87905e-06
1.87905e-06
1.87905e-06
1.87905e-06
1.87905e-06
1.87905e-06
1.89281e-06
1.88981e-06
1.88908e-06
1.8849e-06
1.87905e-06
1.87905e-06
1.87905e-06
1.87905e-06
1.87905e-06
1.87905e-06
1.89244e-06
1.88608e-06
1.88576e-06
1.87904e-06
1.87904e-06
1.87905e-06
1.87905e-06
1.87905e-06
1.87905e-06
1.89288e-06
1.89067e-06
1.89104e-06
1.88889e-06
1.87904e-06
1.87905e-06
1.87905e-06
1.87905e-06
1.89448e-06
1.89023e-06
1.89119e-06
1.89019e-06
1.88796e-06
1.89231e-06
1.89281e-06
1.89244e-06
1.89292e-06
1.89038e-06
1.89211e-06
1.89167e-06
1.88979e-06
1.88608e-06
1.89069e-06
1.8912e-06
1.86136e-06
1.86152e-06
1.861e-06
1.85776e-06
1.85779e-06
1.85724e-06
1.85813e-06
1.86339e-06
1.86253e-06
1.86116e-06
1.85497e-06
1.8514e-06
1.85139e-06
1.85139e-06
1.85139e-06
1.86126e-06
1.86034e-06
1.85775e-06
1.8514e-06
1.8514e-06
1.85139e-06
1.85139e-06
1.85139e-06
1.85139e-06
1.86466e-06
1.86402e-06
1.86137e-06
1.85783e-06
1.85139e-06
1.85139e-06
1.85139e-06
1.85139e-06
1.85139e-06
1.85139e-06
1.86514e-06
1.86214e-06
1.86136e-06
1.85723e-06
1.85138e-06
1.85138e-06
1.85138e-06
1.85138e-06
1.85138e-06
1.85138e-06
1.86477e-06
1.85842e-06
1.85806e-06
1.85138e-06
1.85138e-06
1.85138e-06
1.85138e-06
1.85138e-06
1.85139e-06
1.86522e-06
1.86301e-06
1.86336e-06
1.86121e-06
1.85138e-06
1.85138e-06
1.85138e-06
1.85138e-06
1.86682e-06
1.86256e-06
1.86352e-06
1.86251e-06
1.86026e-06
1.86465e-06
1.86516e-06
1.86479e-06
1.86525e-06
1.86271e-06
1.86444e-06
1.86403e-06
1.86212e-06
1.85841e-06
1.86302e-06
1.86353e-06
1.83369e-06
1.83384e-06
1.83334e-06
1.83007e-06
1.83012e-06
1.82957e-06
1.83047e-06
1.83572e-06
1.83487e-06
1.83347e-06
1.82732e-06
1.82373e-06
1.82373e-06
1.82372e-06
1.82372e-06
1.83359e-06
1.83267e-06
1.83004e-06
1.82373e-06
1.82373e-06
1.82372e-06
1.82372e-06
1.82372e-06
1.82372e-06
1.83699e-06
1.83635e-06
1.83355e-06
1.83016e-06
1.82372e-06
1.82372e-06
1.82372e-06
1.82372e-06
1.82372e-06
1.82372e-06
1.83748e-06
1.83447e-06
1.83386e-06
1.82955e-06
1.82371e-06
1.82372e-06
1.82372e-06
1.82372e-06
1.82372e-06
1.82372e-06
1.83711e-06
1.83075e-06
1.83043e-06
1.82371e-06
1.82371e-06
1.82372e-06
1.82372e-06
1.82372e-06
1.82372e-06
1.83755e-06
1.83534e-06
1.8357e-06
1.83357e-06
1.82371e-06
1.82371e-06
1.82372e-06
1.82372e-06
1.83914e-06
1.8349e-06
1.83586e-06
1.83484e-06
1.83265e-06
1.837e-06
1.83748e-06
1.83712e-06
1.83759e-06
1.83504e-06
1.83677e-06
1.83635e-06
1.83447e-06
1.83075e-06
1.83536e-06
1.83587e-06
1.80602e-06
1.80618e-06
1.80567e-06
1.8024e-06
1.80245e-06
1.8019e-06
1.8028e-06
1.80806e-06
1.8072e-06
1.8058e-06
1.79964e-06
1.79606e-06
1.79606e-06
1.79605e-06
1.79605e-06
1.80593e-06
1.805e-06
1.80239e-06
1.79606e-06
1.79605e-06
1.79605e-06
1.79605e-06
1.79605e-06
1.79605e-06
1.80933e-06
1.80869e-06
1.80599e-06
1.80245e-06
1.79605e-06
1.79605e-06
1.79605e-06
1.79605e-06
1.79605e-06
1.79605e-06
1.80982e-06
1.80681e-06
1.80615e-06
1.8019e-06
1.79605e-06
1.79605e-06
1.79605e-06
1.79605e-06
1.79605e-06
1.79605e-06
1.80944e-06
1.80309e-06
1.80278e-06
1.79605e-06
1.79605e-06
1.79605e-06
1.79605e-06
1.79605e-06
1.79605e-06
1.80989e-06
1.80768e-06
1.80805e-06
1.80591e-06
1.79605e-06
1.79605e-06
1.79605e-06
1.79605e-06
1.81148e-06
1.80723e-06
1.80819e-06
1.80718e-06
1.80499e-06
1.80933e-06
1.80982e-06
1.80945e-06
1.80993e-06
1.80738e-06
1.80911e-06
1.80869e-06
1.8068e-06
1.80308e-06
1.80771e-06
1.80821e-06
1.77835e-06
1.77851e-06
1.778e-06
1.77473e-06
1.77478e-06
1.77423e-06
1.77513e-06
1.78039e-06
1.77953e-06
1.77813e-06
1.77197e-06
1.76839e-06
1.76839e-06
1.76839e-06
1.76839e-06
1.77826e-06
1.77734e-06
1.77471e-06
1.76838e-06
1.76839e-06
1.76839e-06
1.76839e-06
1.76839e-06
1.76839e-06
1.78166e-06
1.78102e-06
1.77832e-06
1.77478e-06
1.76838e-06
1.76838e-06
1.76838e-06
1.76839e-06
1.76839e-06
1.76839e-06
1.78215e-06
1.77914e-06
1.77847e-06
1.77423e-06
1.76838e-06
1.76838e-06
1.76838e-06
1.76839e-06
1.76839e-06
1.76839e-06
1.78178e-06
1.77542e-06
1.77512e-06
1.76838e-06
1.76838e-06
1.76838e-06
1.76838e-06
1.76839e-06
1.76839e-06
1.78222e-06
1.78001e-06
1.78039e-06
1.77824e-06
1.76838e-06
1.76838e-06
1.76838e-06