/*--------------------------------*- C++ -*----------------------------------*\
| =========                 |                                                 |
| \\      /  F ield         | OpenFOAM: The Open Source CFD Toolbox           |
|  \\    /   O peration     | Version:  v2012                                 |
|   \\  /    A nd           | Website:  www.openfoam.com                      |
|    \\/     M anipulation  |                                                 |
\*---------------------------------------------------------------------------*/
FoamFile
{
    version     2.0;
    format      ascii;
    class       volScalarField;
    location    "1.5";
    object      p;
}
// * * * * * * * * * * * * * * * * * * * * * * * * * * * * * * * * * * * * * //

dimensions      [0 2 -2 0 0 0 0];


internalField   nonuniform List<scalar> 
244288
(
1.71662e-06
1.71672e-06
1.71683e-06
1.7167e-06
1.71659e-06
1.71672e-06
1.71682e-06
1.71672e-06
1.71669e-06
1.71662e-06
1.71642e-06
1.71632e-06
1.71644e-06
1.71664e-06
1.71668e-06
1.71683e-06
1.71662e-06
1.71626e-06
1.71589e-06
1.71575e-06
1.71592e-06
1.71631e-06
1.71665e-06
1.71686e-06
1.7167e-06
1.71642e-06
1.71589e-06
1.71543e-06
1.71527e-06
1.71547e-06
1.71596e-06
1.71647e-06
1.71671e-06
1.71662e-06
1.71659e-06
1.71632e-06
1.71575e-06
1.71527e-06
1.7151e-06
1.71531e-06
1.71582e-06
1.71638e-06
1.71659e-06
1.71672e-06
1.71644e-06
1.71592e-06
1.71547e-06
1.71531e-06
1.71551e-06
1.71599e-06
1.71649e-06
1.71674e-06
1.71682e-06
1.71664e-06
1.71631e-06
1.71596e-06
1.71582e-06
1.71599e-06
1.71635e-06
1.71667e-06
1.71685e-06
1.71668e-06
1.71665e-06
1.71647e-06
1.71638e-06
1.71649e-06
1.71667e-06
1.71666e-06
1.71686e-06
1.71671e-06
1.71659e-06
1.71674e-06
1.71685e-06
1.68473e-06
1.68415e-06
1.68376e-06
1.68234e-06
1.68229e-06
1.68231e-06
1.68226e-06
1.68356e-06
1.68375e-06
1.68375e-06
1.68188e-06
1.67928e-06
1.67934e-06
1.67934e-06
1.67927e-06
1.68154e-06
1.68223e-06
1.68233e-06
1.67927e-06
1.67942e-06
1.67949e-06
1.67949e-06
1.67941e-06
1.67927e-06
1.68185e-06
1.68389e-06
1.68471e-06
1.68228e-06
1.67934e-06
1.67949e-06
1.67957e-06
1.67957e-06
1.67949e-06
1.67934e-06
1.68177e-06
1.68383e-06
1.68416e-06
1.68231e-06
1.67934e-06
1.67949e-06
1.67957e-06
1.67957e-06
1.67949e-06
1.67933e-06
1.68178e-06
1.68262e-06
1.68226e-06
1.67927e-06
1.67941e-06
1.67949e-06
1.67949e-06
1.67941e-06
1.67927e-06
1.68176e-06
1.68381e-06
1.68357e-06
1.68154e-06
1.67927e-06
1.67933e-06
1.67933e-06
1.67926e-06
1.68113e-06
1.68204e-06
1.68392e-06
1.68375e-06
1.68222e-06
1.68185e-06
1.68177e-06
1.68177e-06
1.68176e-06
1.68205e-06
1.68343e-06
1.68388e-06
1.68381e-06
1.68262e-06
1.68382e-06
1.68392e-06
1.66698e-06
1.66697e-06
1.66665e-06
1.66496e-06
1.66484e-06
1.66482e-06
1.66488e-06
1.66643e-06
1.6667e-06
1.66665e-06
1.66458e-06
1.66161e-06
1.66159e-06
1.6616e-06
1.66162e-06
1.66427e-06
1.66501e-06
1.66496e-06
1.66162e-06
1.66161e-06
1.6616e-06
1.6616e-06
1.66161e-06
1.66161e-06
1.6646e-06
1.66664e-06
1.66698e-06
1.66484e-06
1.6616e-06
1.6616e-06
1.6616e-06
1.6616e-06
1.6616e-06
1.66159e-06
1.66438e-06
1.66641e-06
1.66696e-06
1.66482e-06
1.66159e-06
1.6616e-06
1.6616e-06
1.6616e-06
1.6616e-06
1.66159e-06
1.66433e-06
1.66517e-06
1.66488e-06
1.66162e-06
1.6616e-06
1.6616e-06
1.6616e-06
1.6616e-06
1.66161e-06
1.66446e-06
1.66651e-06
1.66642e-06
1.66427e-06
1.66161e-06
1.66159e-06
1.66159e-06
1.66161e-06
1.66384e-06
1.66482e-06
1.66672e-06
1.66669e-06
1.66501e-06
1.66459e-06
1.66438e-06
1.66433e-06
1.66445e-06
1.66482e-06
1.6664e-06
1.66664e-06
1.66641e-06
1.66516e-06
1.6665e-06
1.66671e-06
1.64926e-06
1.64925e-06
1.64896e-06
1.64722e-06
1.64709e-06
1.64708e-06
1.64714e-06
1.64873e-06
1.64902e-06
1.64896e-06
1.64682e-06
1.64378e-06
1.64377e-06
1.64377e-06
1.64378e-06
1.64659e-06
1.6473e-06
1.64722e-06
1.64378e-06
1.64378e-06
1.64378e-06
1.64378e-06
1.64378e-06
1.64379e-06
1.64695e-06
1.64894e-06
1.64926e-06
1.6471e-06
1.64377e-06
1.64378e-06
1.64378e-06
1.64378e-06
1.64378e-06
1.64377e-06
1.64672e-06
1.64869e-06
1.64925e-06
1.64708e-06
1.64377e-06
1.64378e-06
1.64378e-06
1.64378e-06
1.64378e-06
1.64377e-06
1.64666e-06
1.64744e-06
1.64714e-06
1.64378e-06
1.64378e-06
1.64378e-06
1.64378e-06
1.64378e-06
1.64378e-06
1.64681e-06
1.64879e-06
1.64872e-06
1.64659e-06
1.64379e-06
1.64377e-06
1.64377e-06
1.64379e-06
1.64622e-06
1.64714e-06
1.64903e-06
1.64902e-06
1.6473e-06
1.64695e-06
1.64672e-06
1.64666e-06
1.64681e-06
1.64714e-06
1.64872e-06
1.64893e-06
1.64868e-06
1.64744e-06
1.64878e-06
1.64902e-06
1.63157e-06
1.63153e-06
1.63129e-06
1.62953e-06
1.6294e-06
1.62939e-06
1.62946e-06
1.63105e-06
1.63135e-06
1.63129e-06
1.62913e-06
1.62605e-06
1.62605e-06
1.62605e-06
1.62605e-06
1.62893e-06
1.62963e-06
1.62953e-06
1.62605e-06
1.62605e-06
1.62605e-06
1.62605e-06
1.62605e-06
1.62605e-06
1.62931e-06
1.63127e-06
1.63157e-06
1.6294e-06
1.62605e-06
1.62605e-06
1.62605e-06
1.62605e-06
1.62605e-06
1.62605e-06
1.62909e-06
1.63101e-06
1.63153e-06
1.62939e-06
1.62605e-06
1.62605e-06
1.62605e-06
1.62605e-06
1.62605e-06
1.62605e-06
1.62903e-06
1.62976e-06
1.62946e-06
1.62605e-06
1.62605e-06
1.62605e-06
1.62605e-06
1.62605e-06
1.62605e-06
1.62917e-06
1.63111e-06
1.63105e-06
1.62893e-06
1.62605e-06
1.62605e-06
1.62605e-06
1.62605e-06
1.6286e-06
1.62948e-06
1.63135e-06
1.63135e-06
1.62963e-06
1.62931e-06
1.62909e-06
1.62903e-06
1.62918e-06
1.62948e-06
1.63105e-06
1.63127e-06
1.63101e-06
1.62976e-06
1.63111e-06
1.63135e-06
1.61388e-06
1.61384e-06
1.61361e-06
1.61185e-06
1.61171e-06
1.6117e-06
1.61177e-06
1.61337e-06
1.61367e-06
1.6136e-06
1.61145e-06
1.60834e-06
1.60835e-06
1.60835e-06
1.60835e-06
1.61126e-06
1.61196e-06
1.61185e-06
1.60834e-06
1.60835e-06
1.60835e-06
1.60835e-06
1.60835e-06
1.60835e-06
1.61163e-06
1.61359e-06
1.61388e-06
1.61171e-06
1.60835e-06
1.60835e-06
1.60835e-06
1.60835e-06
1.60835e-06
1.60835e-06
1.61142e-06
1.61332e-06
1.61384e-06
1.6117e-06
1.60835e-06
1.60835e-06
1.60835e-06
1.60835e-06
1.60835e-06
1.60835e-06
1.61136e-06
1.61208e-06
1.61179e-06
1.60835e-06
1.60835e-06
1.60835e-06
1.60835e-06
1.60835e-06
1.60835e-06
1.6115e-06
1.61343e-06
1.61338e-06
1.61126e-06
1.60835e-06
1.60835e-06
1.60835e-06
1.60835e-06
1.61094e-06
1.61181e-06
1.61368e-06
1.61368e-06
1.61196e-06
1.61163e-06
1.61142e-06
1.61136e-06
1.6115e-06
1.61181e-06
1.61338e-06
1.61359e-06
1.61332e-06
1.61208e-06
1.61343e-06
1.61368e-06
1.59619e-06
1.59615e-06
1.59592e-06
1.59416e-06
1.59402e-06
1.59401e-06
1.59408e-06
1.59569e-06
1.59599e-06
1.59592e-06
1.59376e-06
1.59065e-06
1.59065e-06
1.59065e-06
1.59065e-06
1.59357e-06
1.59427e-06
1.59416e-06
1.59065e-06
1.59065e-06
1.59065e-06
1.59065e-06
1.59065e-06
1.59065e-06
1.59395e-06
1.5959e-06
1.59618e-06
1.59402e-06
1.59065e-06
1.59065e-06
1.59065e-06
1.59065e-06
1.59065e-06
1.59065e-06
1.59373e-06
1.59563e-06
1.59614e-06
1.59401e-06
1.59065e-06
1.59065e-06
1.59065e-06
1.59065e-06
1.59065e-06
1.59065e-06
1.59367e-06
1.59439e-06
1.5941e-06
1.59065e-06
1.59065e-06
1.59065e-06
1.59065e-06
1.59065e-06
1.59065e-06
1.59382e-06
1.59574e-06
1.59569e-06
1.59358e-06
1.59065e-06
1.59065e-06
1.59065e-06
1.59065e-06
1.59325e-06
1.59412e-06
1.59599e-06
1.596e-06
1.59427e-06
1.59395e-06
1.59373e-06
1.59367e-06
1.59382e-06
1.59413e-06
1.59569e-06
1.5959e-06
1.59563e-06
1.59439e-06
1.59574e-06
1.59599e-06
1.5785e-06
1.57846e-06
1.57823e-06
1.57647e-06
1.57633e-06
1.57632e-06
1.57639e-06
1.578e-06
1.5783e-06
1.57823e-06
1.57607e-06
1.57296e-06
1.57296e-06
1.57296e-06
1.57296e-06
1.57588e-06
1.57658e-06
1.57647e-06
1.57296e-06
1.57296e-06
1.57296e-06
1.57296e-06
1.57296e-06
1.57296e-06
1.57626e-06
1.57821e-06
1.5785e-06
1.57633e-06
1.57296e-06
1.57296e-06
1.57296e-06
1.57296e-06
1.57296e-06
1.57296e-06
1.57604e-06
1.57794e-06
1.57846e-06
1.57632e-06
1.57296e-06
1.57296e-06
1.57296e-06
1.57296e-06
1.57296e-06
1.57296e-06
1.57598e-06
1.5767e-06
1.57639e-06
1.57296e-06
1.57296e-06
1.57296e-06
1.57296e-06
1.57296e-06
1.57296e-06
1.57613e-06
1.57805e-06
1.578e-06
1.57588e-06
1.57296e-06
1.57296e-06
1.57296e-06
1.57296e-06
1.57556e-06
1.57644e-06
1.5783e-06
1.5783e-06
1.57658e-06
1.57626e-06
1.57604e-06
1.57598e-06
1.57613e-06
1.57643e-06
1.578e-06
1.57821e-06
1.57794e-06
1.5767e-06
1.57805e-06
1.5783e-06
1.56081e-06
1.56077e-06
1.56054e-06
1.55878e-06
1.55864e-06
1.55863e-06
1.5587e-06
1.56031e-06
1.56061e-06
1.56054e-06
1.55838e-06
1.55527e-06
1.55527e-06
1.55527e-06
1.55527e-06
1.55819e-06
1.55889e-06
1.55878e-06
1.55527e-06
1.55527e-06
1.55527e-06
1.55527e-06
1.55527e-06
1.55527e-06
1.55857e-06
1.56052e-06
1.56081e-06
1.55864e-06
1.55527e-06
1.55527e-06
1.55527e-06
1.55527e-06
1.55527e-06
1.55527e-06
1.55835e-06
1.56025e-06
1.56077e-06
1.55863e-06
1.55527e-06
1.55527e-06
1.55527e-06
1.55527e-06
1.55527e-06
1.55527e-06
1.55829e-06
1.55901e-06
1.5587e-06
1.55527e-06
1.55527e-06
1.55527e-06
1.55527e-06
1.55527e-06
1.55527e-06
1.55844e-06
1.56035e-06
1.5603e-06
1.55819e-06
1.55527e-06
1.55527e-06
1.55527e-06
1.55527e-06
1.55787e-06
1.55874e-06
1.56061e-06
1.56061e-06
1.55889e-06
1.55856e-06
1.55835e-06
1.55829e-06
1.55844e-06
1.55874e-06
1.56031e-06
1.56052e-06
1.56025e-06
1.55901e-06
1.56035e-06
1.56061e-06
1.54312e-06
1.54308e-06
1.54285e-06
1.54109e-06
1.54095e-06
1.54094e-06
1.54101e-06
1.54261e-06
1.54292e-06
1.54285e-06
1.54069e-06
1.53758e-06
1.53758e-06
1.53758e-06
1.53758e-06
1.5405e-06
1.5412e-06
1.54109e-06
1.53758e-06
1.53758e-06
1.53758e-06
1.53758e-06
1.53758e-06
1.53758e-06
1.54087e-06
1.54283e-06
1.54313e-06
1.54095e-06
1.53758e-06
1.53758e-06
1.53758e-06
1.53758e-06
1.53758e-06
1.53758e-06
1.54066e-06
1.54256e-06
1.54307e-06
1.54094e-06
1.53757e-06
1.53757e-06
1.53757e-06
1.53758e-06
1.53758e-06
1.53758e-06
1.5406e-06
1.54131e-06
1.541e-06
1.53757e-06
1.53757e-06
1.53757e-06
1.53757e-06
1.53757e-06
1.53758e-06
1.54074e-06
1.54266e-06
1.54261e-06
1.5405e-06
1.53757e-06
1.53757e-06
1.53757e-06
1.53757e-06
1.54018e-06
1.54105e-06
1.54292e-06
1.54291e-06
1.54119e-06
1.54087e-06
1.54066e-06
1.5406e-06
1.54074e-06
1.54105e-06
1.54262e-06
1.54282e-06
1.54256e-06
1.54131e-06
1.54266e-06
1.54291e-06
1.52543e-06
1.52539e-06
1.52516e-06
1.52339e-06
1.52326e-06
1.52325e-06
1.52332e-06
1.52492e-06
1.52522e-06
1.52516e-06
1.523e-06
1.51988e-06
1.51988e-06
1.51988e-06
1.51988e-06
1.52281e-06
1.52351e-06
1.5234e-06
1.51988e-06
1.51988e-06
1.51988e-06
1.51988e-06
1.51988e-06
1.51988e-06
1.52318e-06
1.52513e-06
1.52542e-06
1.52326e-06
1.51988e-06
1.51988e-06
1.51988e-06
1.51988e-06
1.51988e-06
1.51988e-06
1.52297e-06
1.52487e-06
1.52537e-06
1.52325e-06
1.51988e-06
1.51988e-06
1.51988e-06
1.51988e-06
1.51988e-06
1.51988e-06
1.52291e-06
1.52362e-06
1.52331e-06
1.51988e-06
1.51988e-06
1.51988e-06
1.51988e-06
1.51988e-06
1.51988e-06
1.52305e-06
1.52497e-06
1.52492e-06
1.52281e-06
1.51988e-06
1.51988e-06
1.51988e-06
1.51988e-06
1.52249e-06
1.52336e-06
1.52522e-06
1.52522e-06
1.5235e-06
1.52318e-06
1.52296e-06
1.52291e-06
1.52305e-06
1.52336e-06
1.52493e-06
1.52513e-06
1.52487e-06
1.52362e-06
1.52497e-06
1.52522e-06
1.50773e-06
1.50769e-06
1.50747e-06
1.5057e-06
1.50556e-06
1.50556e-06
1.50562e-06
1.50723e-06
1.50753e-06
1.50746e-06
1.50531e-06
1.50219e-06
1.50219e-06
1.50219e-06
1.50219e-06
1.50512e-06
1.50581e-06
1.5057e-06
1.50219e-06
1.50219e-06
1.50219e-06
1.50219e-06
1.50219e-06
1.50219e-06
1.50549e-06
1.50744e-06
1.50773e-06
1.50556e-06
1.50219e-06
1.50219e-06
1.50219e-06
1.50219e-06
1.50219e-06
1.50219e-06
1.50527e-06
1.50717e-06
1.50769e-06
1.50556e-06
1.50219e-06
1.50219e-06
1.50219e-06
1.50219e-06
1.50219e-06
1.50219e-06
1.50522e-06
1.50593e-06
1.50562e-06
1.50219e-06
1.50219e-06
1.50219e-06
1.50219e-06
1.50219e-06
1.50219e-06
1.50536e-06
1.50728e-06
1.50723e-06
1.50512e-06
1.50219e-06
1.50219e-06
1.50219e-06
1.50219e-06
1.5048e-06
1.50567e-06
1.50753e-06
1.50753e-06
1.50581e-06
1.50549e-06
1.50527e-06
1.50522e-06
1.50536e-06
1.50567e-06
1.50724e-06
1.50744e-06
1.50717e-06
1.50593e-06
1.50728e-06
1.50753e-06
1.49004e-06
1.49e-06
1.48977e-06
1.48801e-06
1.48787e-06
1.48786e-06
1.48793e-06
1.48954e-06
1.48984e-06
1.48977e-06
1.48761e-06
1.4845e-06
1.4845e-06
1.4845e-06
1.4845e-06
1.48742e-06
1.48812e-06
1.48801e-06
1.4845e-06
1.4845e-06
1.4845e-06
1.4845e-06
1.4845e-06
1.4845e-06
1.4878e-06
1.48975e-06
1.49004e-06
1.48787e-06
1.4845e-06
1.4845e-06
1.4845e-06
1.4845e-06
1.4845e-06
1.4845e-06
1.48758e-06
1.48948e-06
1.48999e-06
1.48786e-06
1.4845e-06
1.4845e-06
1.4845e-06
1.4845e-06
1.4845e-06
1.4845e-06
1.48752e-06
1.48824e-06
1.48794e-06
1.4845e-06
1.4845e-06
1.4845e-06
1.4845e-06
1.4845e-06
1.4845e-06
1.48767e-06
1.48959e-06
1.48954e-06
1.48743e-06
1.4845e-06
1.4845e-06
1.4845e-06
1.4845e-06
1.4871e-06
1.48798e-06
1.48984e-06
1.48984e-06
1.48812e-06
1.4878e-06
1.48758e-06
1.48752e-06
1.48767e-06
1.48798e-06
1.48954e-06
1.48975e-06
1.48948e-06
1.48824e-06
1.48959e-06
1.48984e-06
1.47235e-06
1.47231e-06
1.47208e-06
1.47031e-06
1.47018e-06
1.47017e-06
1.47024e-06
1.47184e-06
1.47215e-06
1.47207e-06
1.46992e-06
1.46681e-06
1.46681e-06
1.46681e-06
1.46681e-06
1.46973e-06
1.47043e-06
1.47031e-06
1.46681e-06
1.46681e-06
1.46681e-06
1.46681e-06
1.46681e-06
1.46681e-06
1.47011e-06
1.47206e-06
1.47234e-06
1.47018e-06
1.46681e-06
1.46681e-06
1.46681e-06
1.46681e-06
1.46681e-06
1.46681e-06
1.46989e-06
1.47179e-06
1.4723e-06
1.47017e-06
1.46681e-06
1.46681e-06
1.46681e-06
1.46681e-06
1.46681e-06
1.46681e-06
1.46983e-06
1.47055e-06
1.47025e-06
1.46681e-06
1.46681e-06
1.46681e-06
1.46681e-06
1.46681e-06
1.46681e-06
1.46998e-06
1.47189e-06
1.47185e-06
1.46974e-06
1.46681e-06
1.46681e-06
1.46681e-06
1.46681e-06
1.46941e-06
1.47029e-06
1.47215e-06
1.47215e-06
1.47043e-06
1.47011e-06
1.46989e-06
1.46983e-06
1.46998e-06
1.47028e-06
1.47185e-06
1.47206e-06
1.47179e-06
1.47055e-06
1.4719e-06
1.47215e-06
1.45466e-06
1.45462e-06
1.45439e-06
1.45262e-06
1.45249e-06
1.45248e-06
1.45255e-06
1.45415e-06
1.45446e-06
1.45438e-06
1.45223e-06
1.44911e-06
1.44911e-06
1.44911e-06
1.44912e-06
1.45204e-06
1.45274e-06
1.45262e-06
1.44911e-06
1.44911e-06
1.44912e-06
1.44912e-06
1.44912e-06
1.44912e-06
1.45241e-06
1.45437e-06
1.45465e-06
1.45249e-06
1.44911e-06
1.44912e-06
1.44912e-06
1.44912e-06
1.44912e-06
1.44912e-06
1.4522e-06
1.4541e-06
1.4546e-06
1.45248e-06
1.44912e-06
1.44912e-06
1.44912e-06
1.44912e-06
1.44912e-06
1.44912e-06
1.45214e-06
1.45285e-06
1.45256e-06
1.44912e-06
1.44912e-06
1.44912e-06
1.44912e-06
1.44912e-06
1.44912e-06
1.45229e-06
1.4542e-06
1.45416e-06
1.45204e-06
1.44912e-06
1.44912e-06
1.44912e-06
1.44912e-06
1.45172e-06
1.45259e-06
1.45446e-06
1.45446e-06
1.45274e-06
1.45242e-06
1.4522e-06
1.45214e-06
1.45229e-06
1.45259e-06
1.45416e-06
1.45437e-06
1.4541e-06
1.45286e-06
1.4542e-06
1.45446e-06
1.43696e-06
1.43693e-06
1.4367e-06
1.43493e-06
1.4348e-06
1.43479e-06
1.43486e-06
1.43646e-06
1.43676e-06
1.43669e-06
1.43454e-06
1.43142e-06
1.43142e-06
1.43142e-06
1.43142e-06
1.43435e-06
1.43505e-06
1.43493e-06
1.43142e-06
1.43142e-06
1.43142e-06
1.43142e-06
1.43142e-06
1.43142e-06
1.43472e-06
1.43667e-06
1.43697e-06
1.4348e-06
1.43142e-06
1.43142e-06
1.43142e-06
1.43142e-06
1.43142e-06
1.43142e-06
1.43451e-06
1.43641e-06
1.43693e-06
1.43479e-06
1.43142e-06
1.43142e-06
1.43142e-06
1.43142e-06
1.43142e-06
1.43142e-06
1.43445e-06
1.43516e-06
1.43486e-06
1.43142e-06
1.43142e-06
1.43142e-06
1.43142e-06
1.43142e-06
1.43142e-06
1.43459e-06
1.43651e-06
1.43646e-06
1.43435e-06
1.43142e-06
1.43142e-06
1.43142e-06
1.43142e-06
1.43403e-06
1.4349e-06
1.43676e-06
1.43677e-06
1.43505e-06
1.43472e-06
1.43451e-06
1.43445e-06
1.43459e-06
1.4349e-06
1.43647e-06
1.43667e-06
1.43641e-06
1.43516e-06
1.43651e-06
1.43676e-06
1.41927e-06
1.41923e-06
1.41901e-06
1.41724e-06
1.4171e-06
1.4171e-06
1.41716e-06
1.41877e-06
1.41907e-06
1.419e-06
1.41685e-06
1.41373e-06
1.41373e-06
1.41373e-06
1.41373e-06
1.41666e-06
1.41735e-06
1.41724e-06
1.41373e-06
1.41373e-06
1.41373e-06
1.41373e-06
1.41373e-06
1.41373e-06
1.41703e-06
1.41898e-06
1.41927e-06
1.4171e-06
1.41373e-06
1.41373e-06
1.41373e-06
1.41373e-06
1.41373e-06
1.41373e-06
1.41681e-06
1.41872e-06
1.41923e-06
1.41709e-06
1.41373e-06
1.41373e-06
1.41373e-06
1.41373e-06
1.41373e-06
1.41373e-06
1.41676e-06
1.41747e-06
1.41716e-06
1.41373e-06
1.41373e-06
1.41373e-06
1.41373e-06
1.41373e-06
1.41373e-06
1.4169e-06
1.41882e-06
1.41877e-06
1.41666e-06
1.41373e-06
1.41373e-06
1.41373e-06
1.41373e-06
1.41634e-06
1.41721e-06
1.41907e-06
1.41907e-06
1.41735e-06
1.41703e-06
1.41681e-06
1.41676e-06
1.4169e-06
1.41721e-06
1.41878e-06
1.41898e-06
1.41871e-06
1.41747e-06
1.41882e-06
1.41907e-06
1.40158e-06
1.40154e-06
1.40131e-06
1.39955e-06
1.39941e-06
1.3994e-06
1.39947e-06
1.40108e-06
1.40138e-06
1.40131e-06
1.39915e-06
1.39604e-06
1.39604e-06
1.39604e-06
1.39604e-06
1.39896e-06
1.39966e-06
1.39955e-06
1.39604e-06
1.39604e-06
1.39604e-06
1.39604e-06
1.39604e-06
1.39604e-06
1.39934e-06
1.40129e-06
1.40158e-06
1.39941e-06
1.39604e-06
1.39604e-06
1.39604e-06
1.39604e-06
1.39604e-06
1.39604e-06
1.39912e-06
1.40102e-06
1.40154e-06
1.3994e-06
1.39604e-06
1.39604e-06
1.39604e-06
1.39604e-06
1.39604e-06
1.39604e-06
1.39906e-06
1.39978e-06
1.39947e-06
1.39604e-06
1.39604e-06
1.39604e-06
1.39604e-06
1.39604e-06
1.39604e-06
1.39921e-06
1.40113e-06
1.40108e-06
1.39896e-06
1.39604e-06
1.39604e-06
1.39604e-06
1.39604e-06
1.39865e-06
1.39952e-06
1.40138e-06
1.40138e-06
1.39966e-06
1.39934e-06
1.39912e-06
1.39906e-06
1.39921e-06
1.39952e-06
1.40109e-06
1.40128e-06
1.40102e-06
1.39977e-06
1.40114e-06
1.40138e-06
1.38389e-06
1.38385e-06
1.38362e-06
1.38186e-06
1.38172e-06
1.38171e-06
1.38178e-06
1.38339e-06
1.38369e-06
1.38362e-06
1.38146e-06
1.37835e-06
1.37835e-06
1.37835e-06
1.37835e-06
1.38127e-06
1.38197e-06
1.38186e-06
1.37835e-06
1.37835e-06
1.37835e-06
1.37835e-06
1.37835e-06
1.37835e-06
1.38165e-06
1.3836e-06
1.38389e-06
1.38172e-06
1.37835e-06
1.37835e-06
1.37835e-06
1.37835e-06
1.37835e-06
1.37835e-06
1.38143e-06
1.38333e-06
1.38384e-06
1.38171e-06
1.37835e-06
1.37835e-06
1.37835e-06
1.37835e-06
1.37835e-06
1.37835e-06
1.38137e-06
1.38209e-06
1.38178e-06
1.37835e-06
1.37835e-06
1.37835e-06
1.37835e-06
1.37835e-06
1.37835e-06
1.38152e-06
1.38344e-06
1.38338e-06
1.38127e-06
1.37835e-06
1.37835e-06
1.37835e-06
1.37835e-06
1.38095e-06
1.38183e-06
1.38369e-06
1.38369e-06
1.38197e-06
1.38165e-06
1.38143e-06
1.38137e-06
1.38152e-06
1.38183e-06
1.38339e-06
1.38359e-06
1.38333e-06
1.38208e-06
1.38344e-06
1.38369e-06
1.3662e-06
1.36616e-06
1.36593e-06
1.36416e-06
1.36403e-06
1.36402e-06
1.36409e-06
1.36569e-06
1.366e-06
1.36593e-06
1.36377e-06
1.36066e-06
1.36066e-06
1.36066e-06
1.36066e-06
1.36358e-06
1.36428e-06
1.36417e-06
1.36066e-06
1.36066e-06
1.36066e-06
1.36066e-06
1.36066e-06
1.36066e-06
1.36395e-06
1.36591e-06
1.3662e-06
1.36403e-06
1.36066e-06
1.36066e-06
1.36066e-06
1.36066e-06
1.36066e-06
1.36066e-06
1.36374e-06
1.36564e-06
1.36615e-06
1.36402e-06
1.36066e-06
1.36066e-06
1.36066e-06
1.36066e-06
1.36065e-06
1.36065e-06
1.36368e-06
1.36439e-06
1.36409e-06
1.36066e-06
1.36066e-06
1.36066e-06
1.36065e-06
1.36065e-06
1.36065e-06
1.36382e-06
1.36574e-06
1.36569e-06
1.36358e-06
1.36066e-06
1.36066e-06
1.36065e-06
1.36065e-06
1.36326e-06
1.36413e-06
1.366e-06
1.366e-06
1.36428e-06
1.36396e-06
1.36374e-06
1.36368e-06
1.36382e-06
1.36413e-06
1.3657e-06
1.36591e-06
1.36564e-06
1.36439e-06
1.36574e-06
1.36599e-06
1.34851e-06
1.34847e-06
1.34824e-06
1.34647e-06
1.34634e-06
1.34633e-06
1.3464e-06
1.348e-06
1.3483e-06
1.34824e-06
1.34608e-06
1.34296e-06
1.34296e-06
1.34296e-06
1.34296e-06
1.34589e-06
1.34659e-06
1.34647e-06
1.34296e-06
1.34296e-06
1.34296e-06
1.34296e-06
1.34296e-06
1.34296e-06
1.34626e-06
1.34821e-06
1.3485e-06
1.34634e-06
1.34296e-06
1.34296e-06
1.34296e-06
1.34296e-06
1.34296e-06
1.34296e-06
1.34604e-06
1.34795e-06
1.34846e-06
1.34633e-06
1.34296e-06
1.34296e-06
1.34296e-06
1.34296e-06
1.34296e-06
1.34296e-06
1.34599e-06
1.3467e-06
1.3464e-06
1.34296e-06
1.34296e-06
1.34296e-06
1.34296e-06
1.34296e-06
1.34296e-06
1.34613e-06
1.34805e-06
1.348e-06
1.34589e-06
1.34296e-06
1.34296e-06
1.34296e-06
1.34296e-06
1.34557e-06
1.34644e-06
1.3483e-06
1.34831e-06
1.34659e-06
1.34627e-06
1.34605e-06
1.34599e-06
1.34613e-06
1.34644e-06
1.34801e-06
1.34822e-06
1.34795e-06
1.3467e-06
1.34805e-06
1.3483e-06
1.33081e-06
1.33077e-06
1.33055e-06
1.32878e-06
1.32864e-06
1.32864e-06
1.32871e-06
1.33031e-06
1.33061e-06
1.33054e-06
1.32839e-06
1.32527e-06
1.32527e-06
1.32527e-06
1.32527e-06
1.3282e-06
1.32889e-06
1.32878e-06
1.32527e-06
1.32527e-06
1.32527e-06
1.32527e-06
1.32527e-06
1.32527e-06
1.32857e-06
1.33052e-06
1.33081e-06
1.32864e-06
1.32527e-06
1.32527e-06
1.32527e-06
1.32527e-06
1.32527e-06
1.32527e-06
1.32835e-06
1.33026e-06
1.33077e-06
1.32864e-06
1.32527e-06
1.32527e-06
1.32527e-06
1.32527e-06
1.32527e-06
1.32527e-06
1.3283e-06
1.32901e-06
1.3287e-06
1.32527e-06
1.32527e-06
1.32527e-06
1.32527e-06
1.32527e-06
1.32527e-06
1.32844e-06
1.33036e-06
1.33031e-06
1.32819e-06
1.32527e-06
1.32527e-06
1.32527e-06
1.32527e-06
1.32788e-06
1.32875e-06
1.33061e-06
1.33061e-06
1.32889e-06
1.32857e-06
1.32835e-06
1.32829e-06
1.32845e-06
1.32875e-06
1.33032e-06
1.33052e-06
1.33025e-06
1.329e-06
1.33037e-06
1.33061e-06
1.31312e-06
1.31308e-06
1.31286e-06
1.31109e-06
1.31095e-06
1.31094e-06
1.31101e-06
1.31262e-06
1.31292e-06
1.31285e-06
1.31069e-06
1.30758e-06
1.30758e-06
1.30758e-06
1.30758e-06
1.3105e-06
1.3112e-06
1.31109e-06
1.30758e-06
1.30758e-06
1.30758e-06
1.30758e-06
1.30758e-06
1.30758e-06
1.31088e-06
1.31283e-06
1.31312e-06
1.31095e-06
1.30758e-06
1.30758e-06
1.30758e-06
1.30758e-06
1.30758e-06
1.30758e-06
1.31066e-06
1.31256e-06
1.31308e-06
1.31094e-06
1.30758e-06
1.30758e-06
1.30758e-06
1.30758e-06
1.30758e-06
1.30758e-06
1.3106e-06
1.31132e-06
1.31101e-06
1.30758e-06
1.30758e-06
1.30758e-06
1.30758e-06
1.30758e-06
1.30758e-06
1.31075e-06
1.31267e-06
1.31262e-06
1.3105e-06
1.30758e-06
1.30758e-06
1.30758e-06
1.30758e-06
1.31018e-06
1.31106e-06
1.31292e-06
1.31292e-06
1.3112e-06
1.31088e-06
1.31066e-06
1.3106e-06
1.31075e-06
1.31106e-06
1.31263e-06
1.31282e-06
1.31256e-06
1.31132e-06
1.31267e-06
1.31292e-06
1.29543e-06
1.29538e-06
1.29516e-06
1.2934e-06
1.29326e-06
1.29325e-06
1.29332e-06
1.29493e-06
1.29523e-06
1.29516e-06
1.293e-06
1.28989e-06
1.28989e-06
1.28989e-06
1.28989e-06
1.29281e-06
1.29351e-06
1.2934e-06
1.28989e-06
1.28989e-06
1.28989e-06
1.28989e-06
1.28989e-06
1.28989e-06
1.29319e-06
1.29514e-06
1.29543e-06
1.29326e-06
1.28989e-06
1.28989e-06
1.28989e-06
1.28989e-06
1.28989e-06
1.28989e-06
1.29297e-06
1.29487e-06
1.29539e-06
1.29325e-06
1.28989e-06
1.28989e-06
1.28989e-06
1.28989e-06
1.28989e-06
1.28989e-06
1.29291e-06
1.29363e-06
1.29332e-06
1.28989e-06
1.28989e-06
1.28989e-06
1.28989e-06
1.28989e-06
1.28989e-06
1.29306e-06
1.29497e-06
1.29493e-06
1.29281e-06
1.28989e-06
1.28989e-06
1.28989e-06
1.28989e-06
1.29249e-06
1.29336e-06
1.29523e-06
1.29523e-06
1.29351e-06
1.29319e-06
1.29297e-06
1.29291e-06
1.29306e-06
1.29336e-06
1.29493e-06
1.29514e-06
1.29487e-06
1.29363e-06
1.29497e-06
1.29522e-06
1.27774e-06
1.27769e-06
1.27747e-06
1.27571e-06
1.27557e-06
1.27556e-06
1.27563e-06
1.27723e-06
1.27754e-06
1.27747e-06
1.27531e-06
1.2722e-06
1.2722e-06
1.2722e-06
1.27219e-06
1.27512e-06
1.27582e-06
1.27571e-06
1.2722e-06
1.2722e-06
1.2722e-06
1.2722e-06
1.27219e-06
1.27219e-06
1.27549e-06
1.27745e-06
1.27774e-06
1.27557e-06
1.2722e-06
1.2722e-06
1.2722e-06
1.2722e-06
1.27219e-06
1.27219e-06
1.27528e-06
1.27718e-06
1.27769e-06
1.27556e-06
1.2722e-06
1.2722e-06
1.2722e-06
1.27219e-06
1.27219e-06
1.27219e-06
1.27522e-06
1.27593e-06
1.27563e-06
1.2722e-06
1.2722e-06
1.2722e-06
1.27219e-06
1.27219e-06
1.27219e-06
1.27536e-06
1.27728e-06
1.27724e-06
1.27512e-06
1.2722e-06
1.2722e-06
1.27219e-06
1.27219e-06
1.2748e-06
1.27567e-06
1.27753e-06
1.27754e-06
1.27582e-06
1.2755e-06
1.27528e-06
1.27522e-06
1.27536e-06
1.27567e-06
1.27724e-06
1.27745e-06
1.27718e-06
1.27594e-06
1.27728e-06
1.27753e-06
1.26004e-06
1.26e-06
1.25978e-06
1.25801e-06
1.25788e-06
1.25787e-06
1.25794e-06
1.25954e-06
1.25984e-06
1.25978e-06
1.25762e-06
1.2545e-06
1.2545e-06
1.2545e-06
1.2545e-06
1.25743e-06
1.25812e-06
1.25801e-06
1.2545e-06
1.2545e-06
1.2545e-06
1.2545e-06
1.2545e-06
1.2545e-06
1.2578e-06
1.25975e-06
1.26005e-06
1.25788e-06
1.2545e-06
1.2545e-06
1.2545e-06
1.2545e-06
1.2545e-06
1.2545e-06
1.25758e-06
1.25949e-06
1.26e-06
1.25787e-06
1.2545e-06
1.2545e-06
1.2545e-06
1.2545e-06
1.2545e-06
1.2545e-06
1.25753e-06
1.25824e-06
1.25794e-06
1.2545e-06
1.2545e-06
1.2545e-06
1.2545e-06
1.2545e-06
1.2545e-06
1.25767e-06
1.25959e-06
1.25954e-06
1.25743e-06
1.2545e-06
1.2545e-06
1.2545e-06
1.2545e-06
1.25711e-06
1.25798e-06
1.25984e-06
1.25985e-06
1.25813e-06
1.25781e-06
1.25759e-06
1.25753e-06
1.25767e-06
1.25798e-06
1.25954e-06
1.25976e-06
1.25949e-06
1.25824e-06
1.25959e-06
1.25984e-06
1.24235e-06
1.24231e-06
1.24209e-06
1.24032e-06
1.24018e-06
1.24018e-06
1.24024e-06
1.24185e-06
1.24215e-06
1.24208e-06
1.23993e-06
1.23681e-06
1.23681e-06
1.23681e-06
1.23681e-06
1.23974e-06
1.24043e-06
1.24032e-06
1.23681e-06
1.23681e-06
1.23681e-06
1.23681e-06
1.23681e-06
1.23681e-06
1.24011e-06
1.24206e-06
1.24235e-06
1.24019e-06
1.23681e-06
1.23681e-06
1.23681e-06
1.23681e-06
1.23681e-06
1.23681e-06
1.23989e-06
1.24179e-06
1.24231e-06
1.24017e-06
1.23681e-06
1.23681e-06
1.23681e-06
1.23681e-06
1.23681e-06
1.23681e-06
1.23983e-06
1.24055e-06
1.24024e-06
1.23681e-06
1.23681e-06
1.23681e-06
1.23681e-06
1.23681e-06
1.23681e-06
1.23998e-06
1.2419e-06
1.24185e-06
1.23974e-06
1.23681e-06
1.23681e-06
1.23681e-06
1.23681e-06
1.23941e-06
1.24029e-06
1.24215e-06
1.24215e-06
1.24043e-06
1.24011e-06
1.23989e-06
1.23983e-06
1.23998e-06
1.24029e-06
1.24185e-06
1.24206e-06
1.24179e-06
1.24055e-06
1.2419e-06
1.24215e-06
1.22466e-06
1.22462e-06
1.2244e-06
1.22263e-06
1.22249e-06
1.22248e-06
1.22255e-06
1.22416e-06
1.22446e-06
1.22439e-06
1.22224e-06
1.21912e-06
1.21912e-06
1.21912e-06
1.21912e-06
1.22204e-06
1.22274e-06
1.22263e-06
1.21912e-06
1.21912e-06
1.21912e-06
1.21912e-06
1.21912e-06
1.21912e-06
1.22242e-06
1.22437e-06
1.22466e-06
1.22249e-06
1.21912e-06
1.21912e-06
1.21912e-06
1.21912e-06
1.21912e-06
1.21912e-06
1.2222e-06
1.2241e-06
1.22461e-06
1.22248e-06
1.21912e-06
1.21912e-06
1.21912e-06
1.21912e-06
1.21912e-06
1.21912e-06
1.22214e-06
1.22286e-06
1.22255e-06
1.21912e-06
1.21912e-06
1.21912e-06
1.21912e-06
1.21912e-06
1.21912e-06
1.22229e-06
1.22421e-06
1.22416e-06
1.22204e-06
1.21912e-06
1.21912e-06
1.21912e-06
1.21912e-06
1.22172e-06
1.2226e-06
1.22446e-06
1.22446e-06
1.22274e-06
1.22242e-06
1.2222e-06
1.22214e-06
1.22229e-06
1.2226e-06
1.22416e-06
1.22437e-06
1.2241e-06
1.22286e-06
1.22421e-06
1.22446e-06
1.20697e-06
1.20693e-06
1.20671e-06
1.20494e-06
1.2048e-06
1.20479e-06
1.20486e-06
1.20647e-06
1.20677e-06
1.2067e-06
1.20455e-06
1.20143e-06
1.20143e-06
1.20143e-06
1.20143e-06
1.20435e-06
1.20505e-06
1.20494e-06
1.20143e-06
1.20143e-06
1.20143e-06
1.20143e-06
1.20143e-06
1.20143e-06
1.20473e-06
1.20668e-06
1.20698e-06
1.2048e-06
1.20143e-06
1.20143e-06
1.20143e-06
1.20143e-06
1.20143e-06
1.20143e-06
1.20451e-06
1.20641e-06
1.20692e-06
1.20479e-06
1.20143e-06
1.20143e-06
1.20143e-06
1.20143e-06
1.20143e-06
1.20143e-06
1.20445e-06
1.20517e-06
1.20485e-06
1.20143e-06
1.20143e-06
1.20143e-06
1.20143e-06
1.20143e-06
1.20143e-06
1.2046e-06
1.20651e-06
1.20646e-06
1.20435e-06
1.20143e-06
1.20143e-06
1.20143e-06
1.20143e-06
1.20403e-06
1.20491e-06
1.20677e-06
1.20676e-06
1.20504e-06
1.20472e-06
1.20451e-06
1.20445e-06
1.2046e-06
1.2049e-06
1.20647e-06
1.20668e-06
1.20641e-06
1.20517e-06
1.20651e-06
1.20677e-06
1.18928e-06
1.18924e-06
1.18901e-06
1.18725e-06
1.18711e-06
1.1871e-06
1.18717e-06
1.18877e-06
1.18908e-06
1.18901e-06
1.18685e-06
1.18374e-06
1.18374e-06
1.18374e-06
1.18374e-06
1.18666e-06
1.18736e-06
1.18725e-06
1.18374e-06
1.18374e-06
1.18374e-06
1.18374e-06
1.18374e-06
1.18374e-06
1.18704e-06
1.18899e-06
1.18929e-06
1.18711e-06
1.18374e-06
1.18374e-06
1.18374e-06
1.18374e-06
1.18374e-06
1.18374e-06
1.18682e-06
1.18872e-06
1.18923e-06
1.1871e-06
1.18373e-06
1.18373e-06
1.18373e-06
1.18373e-06
1.18374e-06
1.18374e-06
1.18676e-06
1.18747e-06
1.18716e-06
1.18373e-06
1.18373e-06
1.18373e-06
1.18373e-06
1.18373e-06
1.18373e-06
1.1869e-06
1.18882e-06
1.18877e-06
1.18666e-06
1.18373e-06
1.18373e-06
1.18373e-06
1.18373e-06
1.18634e-06
1.18721e-06
1.18908e-06
1.18907e-06
1.18735e-06
1.18703e-06
1.18682e-06
1.18676e-06
1.18691e-06
1.18721e-06
1.18878e-06
1.18898e-06
1.18872e-06
1.18747e-06
1.18882e-06
1.18907e-06
1.17159e-06
1.17155e-06
1.17132e-06
1.16955e-06
1.16942e-06
1.16941e-06
1.16948e-06
1.17108e-06
1.17138e-06
1.17131e-06
1.16916e-06
1.16604e-06
1.16604e-06
1.16604e-06
1.16604e-06
1.16897e-06
1.16967e-06
1.16955e-06
1.16604e-06
1.16604e-06
1.16604e-06
1.16604e-06
1.16604e-06
1.16604e-06
1.16934e-06
1.17129e-06
1.17159e-06
1.16942e-06
1.16604e-06
1.16604e-06
1.16604e-06
1.16604e-06
1.16604e-06
1.16604e-06
1.16912e-06
1.17103e-06
1.17154e-06
1.16941e-06
1.16604e-06
1.16604e-06
1.16604e-06
1.16604e-06
1.16604e-06
1.16604e-06
1.16907e-06
1.16978e-06
1.16947e-06
1.16604e-06
1.16604e-06
1.16604e-06
1.16604e-06
1.16604e-06
1.16604e-06
1.16921e-06
1.17113e-06
1.17108e-06
1.16897e-06
1.16604e-06
1.16604e-06
1.16604e-06
1.16604e-06
1.16865e-06
1.16952e-06
1.17138e-06
1.17138e-06
1.16966e-06
1.16934e-06
1.16912e-06
1.16907e-06
1.16921e-06
1.16952e-06
1.17109e-06
1.17129e-06
1.17103e-06
1.16978e-06
1.17113e-06
1.17138e-06
1.15389e-06
1.15385e-06
1.15363e-06
1.15186e-06
1.15172e-06
1.15172e-06
1.15178e-06
1.15339e-06
1.15369e-06
1.15362e-06
1.15147e-06
1.14835e-06
1.14835e-06
1.14835e-06
1.14835e-06
1.15128e-06
1.15197e-06
1.15186e-06
1.14835e-06
1.14835e-06
1.14835e-06
1.14835e-06
1.14835e-06
1.14835e-06
1.15165e-06
1.1536e-06
1.15389e-06
1.15172e-06
1.14835e-06
1.14835e-06
1.14835e-06
1.14835e-06
1.14835e-06
1.14835e-06
1.15143e-06
1.15333e-06
1.15385e-06
1.15172e-06
1.14835e-06
1.14835e-06
1.14835e-06
1.14835e-06
1.14835e-06
1.14835e-06
1.15138e-06
1.15209e-06
1.15178e-06
1.14835e-06
1.14835e-06
1.14835e-06
1.14835e-06
1.14835e-06
1.14835e-06
1.15152e-06
1.15344e-06
1.15339e-06
1.15127e-06
1.14835e-06
1.14835e-06
1.14835e-06
1.14835e-06
1.15095e-06
1.15183e-06
1.15369e-06
1.15369e-06
1.15197e-06