/*--------------------------------*- C++ -*----------------------------------*\
| =========                 |                                                 |
| \\      /  F ield         | OpenFOAM: The Open Source CFD Toolbox           |
|  \\    /   O peration     | Version:  v2012                                 |
|   \\  /    A nd           | Website:  www.openfoam.com                      |
|    \\/     M anipulation  |                                                 |
\*---------------------------------------------------------------------------*/
FoamFile
{
    version     2.0;
    format      ascii;
    class       volScalarField;
    location    "0.095";
    object      p;
}
// * * * * * * * * * * * * * * * * * * * * * * * * * * * * * * * * * * * * * //

dimensions      [0 2 -2 0 0 0 0];


internalField   nonuniform List<scalar> 
244288
(
2.26426e-06
2.26581e-06
2.26582e-06
2.26531e-06
2.26492e-06
2.2654e-06
2.26586e-06
2.26581e-06
2.26598e-06
2.26602e-06
2.26571e-06
2.26552e-06
2.26576e-06
2.26604e-06
2.26595e-06
2.26582e-06
2.26602e-06
2.26581e-06
2.26543e-06
2.26527e-06
2.26548e-06
2.26586e-06
2.26602e-06
2.26581e-06
2.26531e-06
2.26571e-06
2.26543e-06
2.26502e-06
2.26485e-06
2.26506e-06
2.26549e-06
2.26572e-06
2.26522e-06
2.26426e-06
2.26492e-06
2.26552e-06
2.26527e-06
2.26485e-06
2.26469e-06
2.2649e-06
2.26533e-06
2.26551e-06
2.26479e-06
2.2654e-06
2.26576e-06
2.26548e-06
2.26506e-06
2.2649e-06
2.26511e-06
2.26554e-06
2.26577e-06
2.26532e-06
2.26586e-06
2.26604e-06
2.26586e-06
2.26549e-06
2.26532e-06
2.26554e-06
2.26591e-06
2.26604e-06
2.26586e-06
2.26595e-06
2.26602e-06
2.26572e-06
2.26551e-06
2.26577e-06
2.26604e-06
2.26592e-06
2.26581e-06
2.26521e-06
2.26479e-06
2.26531e-06
2.26586e-06
2.23099e-06
2.2294e-06
2.23039e-06
2.22859e-06
2.22828e-06
2.22817e-06
2.22828e-06
2.2311e-06
2.23093e-06
2.23038e-06
2.22777e-06
2.22484e-06
2.2247e-06
2.2247e-06
2.22484e-06
2.22944e-06
2.22882e-06
2.22859e-06
2.22484e-06
2.22466e-06
2.22463e-06
2.22464e-06
2.22466e-06
2.22484e-06
2.22971e-06
2.23174e-06
2.23097e-06
2.22828e-06
2.22469e-06
2.22463e-06
2.22466e-06
2.22467e-06
2.22464e-06
2.22471e-06
2.22928e-06
2.23047e-06
2.22938e-06
2.22817e-06
2.2247e-06
2.22463e-06
2.22466e-06
2.22467e-06
2.22464e-06
2.22471e-06
2.22921e-06
2.22784e-06
2.22828e-06
2.22484e-06
2.22466e-06
2.22464e-06
2.22464e-06
2.22466e-06
2.22485e-06
2.22943e-06
2.22946e-06
2.2311e-06
2.22944e-06
2.22484e-06
2.2247e-06
2.2247e-06
2.22485e-06
2.23016e-06
2.22954e-06
2.2318e-06
2.23092e-06
2.22881e-06
2.22971e-06
2.22927e-06
2.2292e-06
2.22942e-06
2.22954e-06
2.23223e-06
2.23173e-06
2.23047e-06
2.22784e-06
2.22946e-06
2.23181e-06
2.20968e-06
2.20946e-06
2.20951e-06
2.20678e-06
2.20679e-06
2.20669e-06
2.20686e-06
2.21041e-06
2.21023e-06
2.20951e-06
2.20566e-06
2.20244e-06
2.20205e-06
2.20204e-06
2.20241e-06
2.20845e-06
2.20786e-06
2.20678e-06
2.20244e-06
2.20132e-06
2.20129e-06
2.20128e-06
2.20131e-06
2.20246e-06
2.20968e-06
2.21116e-06
2.2096e-06
2.20682e-06
2.20205e-06
2.20129e-06
2.20131e-06
2.20131e-06
2.20128e-06
2.20203e-06
2.20962e-06
2.2101e-06
2.20939e-06
2.20669e-06
2.20204e-06
2.20128e-06
2.20131e-06
2.20131e-06
2.20128e-06
2.20204e-06
2.20943e-06
2.20697e-06
2.20685e-06
2.2024e-06
2.2013e-06
2.20127e-06
2.20127e-06
2.2013e-06
2.20242e-06
2.20979e-06
2.21085e-06
2.21041e-06
2.20844e-06
2.20244e-06
2.20202e-06
2.20202e-06
2.20243e-06
2.2104e-06
2.20886e-06
2.21087e-06
2.21023e-06
2.20785e-06
2.20967e-06
2.20961e-06
2.20942e-06
2.20979e-06
2.20889e-06
2.21149e-06
2.21114e-06
2.21004e-06
2.20701e-06
2.21085e-06
2.21086e-06
2.18672e-06
2.18655e-06
2.18657e-06
2.18355e-06
2.18362e-06
2.18337e-06
2.18382e-06
2.18748e-06
2.18735e-06
2.18657e-06
2.1818e-06
2.17899e-06
2.17884e-06
2.17883e-06
2.17902e-06
2.185e-06
2.18513e-06
2.18354e-06
2.17899e-06
2.17861e-06
2.17858e-06
2.17858e-06
2.17862e-06
2.179e-06
2.18686e-06
2.18827e-06
2.18669e-06
2.18364e-06
2.17883e-06
2.17858e-06
2.17857e-06
2.17857e-06
2.17858e-06
2.17884e-06
2.18721e-06
2.18723e-06
2.18653e-06
2.18337e-06
2.17883e-06
2.17858e-06
2.17857e-06
2.17857e-06
2.17859e-06
2.17884e-06
2.18708e-06
2.18429e-06
2.18381e-06
2.17902e-06
2.17862e-06
2.17859e-06
2.17859e-06
2.17862e-06
2.17903e-06
2.18723e-06
2.18797e-06
2.18748e-06
2.185e-06
2.17901e-06
2.17885e-06
2.17885e-06
2.179e-06
2.18783e-06
2.18605e-06
2.1881e-06
2.18735e-06
2.18513e-06
2.18686e-06
2.18723e-06
2.18709e-06
2.18723e-06
2.18607e-06
2.18845e-06
2.18824e-06
2.18723e-06
2.18431e-06
2.18798e-06
2.18808e-06
2.16348e-06
2.16334e-06
2.16309e-06
2.15998e-06
2.16005e-06
2.15966e-06
2.16029e-06
2.16396e-06
2.16382e-06
2.16308e-06
2.15782e-06
2.15527e-06
2.15524e-06
2.15523e-06
2.15528e-06
2.16117e-06
2.1617e-06
2.15998e-06
2.15527e-06
2.15519e-06
2.15518e-06
2.15518e-06
2.15519e-06
2.15528e-06
2.16349e-06
2.16493e-06
2.16349e-06
2.16004e-06
2.15523e-06
2.15518e-06
2.15518e-06
2.15518e-06
2.15518e-06
2.15524e-06
2.16416e-06
2.1641e-06
2.16335e-06
2.15966e-06
2.15523e-06
2.15518e-06
2.15518e-06
2.15518e-06
2.15518e-06
2.15524e-06
2.16408e-06
2.16123e-06
2.1603e-06
2.15529e-06
2.15519e-06
2.15518e-06
2.15518e-06
2.15519e-06
2.15529e-06
2.16401e-06
2.1648e-06
2.16396e-06
2.16117e-06
2.15528e-06
2.15524e-06
2.15524e-06
2.15528e-06
2.16467e-06
2.16272e-06
2.16469e-06
2.16382e-06
2.16171e-06
2.1635e-06
2.16417e-06
2.16409e-06
2.16401e-06
2.16273e-06
2.16495e-06
2.16494e-06
2.1641e-06
2.16125e-06
2.16481e-06
2.1647e-06
2.14004e-06
2.13992e-06
2.13955e-06
2.13643e-06
2.13649e-06
2.13604e-06
2.13674e-06
2.14043e-06
2.14028e-06
2.13955e-06
2.13416e-06
2.13166e-06
2.13166e-06
2.13166e-06
2.13167e-06
2.13749e-06
2.13817e-06
2.13643e-06
2.13166e-06
2.13164e-06
2.13164e-06
2.13164e-06
2.13164e-06
2.13166e-06
2.13998e-06
2.14142e-06
2.14008e-06
2.13645e-06
2.13166e-06
2.13164e-06
2.13164e-06
2.13164e-06
2.13164e-06
2.13166e-06
2.14072e-06
2.14066e-06
2.13995e-06
2.13608e-06
2.13166e-06
2.13164e-06
2.13164e-06
2.13164e-06
2.13164e-06
2.13166e-06
2.14067e-06
2.13783e-06
2.13674e-06
2.13167e-06
2.13165e-06
2.13164e-06
2.13164e-06
2.13165e-06
2.13167e-06
2.14053e-06
2.14135e-06
2.14042e-06
2.1375e-06
2.13167e-06
2.13166e-06
2.13166e-06
2.13167e-06
2.14125e-06
2.13923e-06
2.14118e-06
2.14028e-06
2.13817e-06
2.13998e-06
2.14073e-06
2.14068e-06
2.14054e-06
2.13924e-06
2.14142e-06
2.14143e-06
2.14066e-06
2.13783e-06
2.14135e-06
2.14118e-06
2.11648e-06
2.11637e-06
2.116e-06
2.11286e-06
2.11292e-06
2.11245e-06
2.11318e-06
2.11686e-06
2.11671e-06
2.11599e-06
2.11058e-06
2.10809e-06
2.10808e-06
2.10808e-06
2.10809e-06
2.11391e-06
2.11461e-06
2.11287e-06
2.10809e-06
2.10808e-06
2.10808e-06
2.10808e-06
2.10808e-06
2.10809e-06
2.11642e-06
2.11786e-06
2.11655e-06
2.11288e-06
2.10809e-06
2.10808e-06
2.10808e-06
2.10808e-06
2.10808e-06
2.10808e-06
2.11719e-06
2.11712e-06
2.11638e-06
2.11249e-06
2.10809e-06
2.10808e-06
2.10808e-06
2.10808e-06
2.10808e-06
2.10808e-06
2.11714e-06
2.1143e-06
2.11317e-06
2.10809e-06
2.10808e-06
2.10808e-06
2.10808e-06
2.10808e-06
2.10809e-06
2.11699e-06
2.11781e-06
2.11686e-06
2.11391e-06
2.10809e-06
2.10808e-06
2.10808e-06
2.10808e-06
2.11773e-06
2.11569e-06
2.11762e-06
2.11671e-06
2.11461e-06
2.11642e-06
2.11719e-06
2.11715e-06
2.11699e-06
2.11569e-06
2.11785e-06
2.11787e-06
2.11712e-06
2.11431e-06
2.11781e-06
2.11761e-06
2.09293e-06
2.09282e-06
2.09243e-06
2.08929e-06
2.08936e-06
2.08889e-06
2.08961e-06
2.0933e-06
2.09314e-06
2.09242e-06
2.08698e-06
2.08452e-06
2.08451e-06
2.08451e-06
2.08451e-06
2.09033e-06
2.09104e-06
2.08929e-06
2.08451e-06
2.08451e-06
2.08451e-06
2.08451e-06
2.08451e-06
2.08451e-06
2.09286e-06
2.09429e-06
2.09295e-06
2.08932e-06
2.08451e-06
2.08451e-06
2.08451e-06
2.08451e-06
2.08451e-06
2.08451e-06
2.09363e-06
2.09356e-06
2.09284e-06
2.08886e-06
2.08451e-06
2.08451e-06
2.08451e-06
2.08451e-06
2.08451e-06
2.08451e-06
2.09358e-06
2.09074e-06
2.08961e-06
2.08451e-06
2.08451e-06
2.08451e-06
2.08451e-06
2.08451e-06
2.08451e-06
2.09342e-06
2.09425e-06
2.0933e-06
2.09033e-06
2.08451e-06
2.08451e-06
2.08451e-06
2.08451e-06
2.09416e-06
2.09212e-06
2.09405e-06
2.09315e-06
2.09105e-06
2.09286e-06
2.09364e-06
2.09359e-06
2.09343e-06
2.09213e-06
2.09429e-06
2.09431e-06
2.09357e-06
2.09075e-06
2.09425e-06
2.09405e-06
2.06936e-06
2.06925e-06
2.06886e-06
2.06572e-06
2.06578e-06
2.0653e-06
2.06604e-06
2.06973e-06
2.06958e-06
2.06884e-06
2.06341e-06
2.06094e-06
2.06094e-06
2.06094e-06
2.06094e-06
2.06676e-06
2.06748e-06
2.06571e-06
2.06094e-06
2.06094e-06
2.06094e-06
2.06094e-06
2.06094e-06
2.06094e-06
2.06929e-06
2.07073e-06
2.0693e-06
2.06579e-06
2.06094e-06
2.06094e-06
2.06094e-06
2.06094e-06
2.06094e-06
2.06094e-06
2.07006e-06
2.06999e-06
2.06919e-06
2.06535e-06
2.06094e-06
2.06094e-06
2.06094e-06
2.06094e-06
2.06094e-06
2.06094e-06
2.07002e-06
2.06718e-06
2.06603e-06
2.06094e-06
2.06094e-06
2.06094e-06
2.06094e-06
2.06094e-06
2.06094e-06
2.06986e-06
2.07068e-06
2.06973e-06
2.06676e-06
2.06095e-06
2.06094e-06
2.06094e-06
2.06094e-06
2.0706e-06
2.06856e-06
2.07048e-06
2.06958e-06
2.06747e-06
2.06929e-06
2.07007e-06
2.07002e-06
2.06986e-06
2.06856e-06
2.07072e-06
2.07073e-06
2.06999e-06
2.06718e-06
2.07069e-06
2.07048e-06
2.04579e-06
2.04568e-06
2.04529e-06
2.04215e-06
2.04222e-06
2.04173e-06
2.04247e-06
2.04616e-06
2.04601e-06
2.04527e-06
2.03984e-06
2.03737e-06
2.03737e-06
2.03737e-06
2.03737e-06
2.04319e-06
2.04391e-06
2.04215e-06
2.03738e-06
2.03737e-06
2.03737e-06
2.03737e-06
2.03737e-06
2.03737e-06
2.04572e-06
2.04716e-06
2.04572e-06
2.0422e-06
2.03738e-06
2.03737e-06
2.03737e-06
2.03737e-06
2.03737e-06
2.03737e-06
2.04649e-06
2.04642e-06
2.04559e-06
2.04177e-06
2.03737e-06
2.03737e-06
2.03737e-06
2.03737e-06
2.03737e-06
2.03737e-06
2.04645e-06
2.04361e-06
2.04245e-06
2.03737e-06
2.03737e-06
2.03737e-06
2.03737e-06
2.03737e-06
2.03737e-06
2.04629e-06
2.04711e-06
2.04616e-06
2.04319e-06
2.03737e-06
2.03737e-06
2.03737e-06
2.03737e-06
2.04704e-06
2.045e-06
2.04692e-06
2.04601e-06
2.0439e-06
2.04572e-06
2.0465e-06
2.04646e-06
2.04629e-06
2.04499e-06
2.04715e-06
2.04717e-06
2.04643e-06
2.04362e-06
2.04711e-06
2.04691e-06
2.02222e-06
2.02211e-06
2.02172e-06
2.01858e-06
2.01864e-06
2.01816e-06
2.0189e-06
2.02259e-06
2.02244e-06
2.0217e-06
2.01627e-06
2.0138e-06
2.0138e-06
2.0138e-06
2.0138e-06
2.01962e-06
2.02034e-06
2.01857e-06
2.0138e-06
2.0138e-06
2.0138e-06
2.0138e-06
2.0138e-06
2.0138e-06
2.02215e-06
2.02359e-06
2.02215e-06
2.01863e-06
2.0138e-06
2.0138e-06
2.0138e-06
2.0138e-06
2.0138e-06
2.0138e-06
2.02292e-06
2.02285e-06
2.02206e-06
2.0182e-06
2.01381e-06
2.0138e-06
2.0138e-06
2.0138e-06
2.0138e-06
2.0138e-06
2.02288e-06
2.02004e-06
2.01889e-06
2.0138e-06
2.0138e-06
2.0138e-06
2.0138e-06
2.0138e-06
2.0138e-06
2.02272e-06
2.02354e-06
2.02258e-06
2.01963e-06
2.0138e-06
2.0138e-06
2.0138e-06
2.0138e-06
2.02347e-06
2.02143e-06
2.02335e-06
2.02244e-06
2.02033e-06
2.02215e-06
2.02292e-06
2.02289e-06
2.02272e-06
2.02142e-06
2.02358e-06
2.0236e-06
2.02286e-06
2.02004e-06
2.02355e-06
2.02334e-06
1.99865e-06
1.99853e-06
1.99815e-06
1.99501e-06
1.99507e-06
1.99459e-06
1.99532e-06
1.99902e-06
1.99887e-06
1.99813e-06
1.9927e-06
1.99023e-06
1.99023e-06
1.99023e-06
1.99023e-06
1.99605e-06
1.99677e-06
1.99501e-06
1.99023e-06
1.99023e-06
1.99023e-06
1.99023e-06
1.99023e-06
1.99023e-06
1.99858e-06
2.00002e-06
1.99865e-06
1.99507e-06
1.99023e-06
1.99023e-06
1.99023e-06
1.99023e-06
1.99023e-06
1.99023e-06
1.99935e-06
1.99929e-06
1.99854e-06
1.99459e-06
1.99023e-06
1.99023e-06
1.99023e-06
1.99023e-06
1.99023e-06
1.99023e-06
1.99931e-06
1.99647e-06
1.99533e-06
1.99023e-06
1.99023e-06
1.99023e-06
1.99023e-06
1.99023e-06
1.99023e-06
1.99915e-06
1.99997e-06
1.99902e-06
1.99606e-06
1.99023e-06
1.99023e-06
1.99023e-06
1.99023e-06
1.99989e-06
1.99785e-06
1.99978e-06
1.99887e-06
1.99676e-06
1.99858e-06
1.99936e-06
1.99932e-06
1.99915e-06
1.99785e-06
2.00001e-06
2.00003e-06
1.99928e-06
1.99647e-06
1.99998e-06
1.99977e-06
1.97508e-06
1.97497e-06
1.97458e-06
1.97144e-06
1.9715e-06
1.97102e-06
1.97175e-06
1.97545e-06
1.9753e-06
1.97456e-06
1.96913e-06
1.96666e-06
1.96666e-06
1.96666e-06
1.96666e-06
1.97248e-06
1.9732e-06
1.97144e-06
1.96666e-06
1.96666e-06
1.96666e-06
1.96666e-06
1.96666e-06
1.96666e-06
1.97501e-06
1.97645e-06
1.9751e-06
1.97147e-06
1.96666e-06
1.96666e-06
1.96666e-06
1.96666e-06
1.96666e-06
1.96666e-06
1.97578e-06
1.97571e-06
1.97496e-06
1.97106e-06
1.96666e-06
1.96666e-06
1.96666e-06
1.96666e-06
1.96666e-06
1.96666e-06
1.97574e-06
1.9729e-06
1.97174e-06
1.96666e-06
1.96666e-06
1.96666e-06
1.96666e-06
1.96666e-06
1.96666e-06
1.97558e-06
1.9764e-06
1.97544e-06
1.97248e-06
1.96666e-06
1.96666e-06
1.96666e-06
1.96666e-06
1.97633e-06
1.97428e-06
1.9762e-06
1.97529e-06
1.97319e-06
1.97501e-06
1.97578e-06
1.97574e-06
1.97558e-06
1.97428e-06
1.97644e-06
1.97645e-06
1.97571e-06
1.9729e-06
1.9764e-06
1.9762e-06
1.95151e-06
1.9514e-06
1.95101e-06
1.94787e-06
1.94793e-06
1.94745e-06
1.94818e-06
1.95188e-06
1.95172e-06
1.95099e-06
1.94556e-06
1.94309e-06
1.94309e-06
1.94309e-06
1.94309e-06
1.9489e-06
1.94963e-06
1.94787e-06
1.94309e-06
1.94309e-06
1.94309e-06
1.94309e-06
1.94309e-06
1.94309e-06
1.95144e-06
1.95287e-06
1.95162e-06
1.94788e-06
1.94309e-06
1.94309e-06
1.94309e-06
1.94309e-06
1.94309e-06
1.94309e-06
1.95221e-06
1.95214e-06
1.95138e-06
1.94751e-06
1.94309e-06
1.94309e-06
1.94309e-06
1.94309e-06
1.94309e-06
1.94309e-06
1.95217e-06
1.94933e-06
1.94818e-06
1.94309e-06
1.94309e-06
1.94309e-06
1.94309e-06
1.94309e-06
1.94309e-06
1.95201e-06
1.95283e-06
1.95187e-06
1.94891e-06
1.94309e-06
1.94309e-06
1.94309e-06
1.94309e-06
1.95275e-06
1.95071e-06
1.95263e-06
1.95172e-06
1.94962e-06
1.95144e-06
1.95222e-06
1.95218e-06
1.95201e-06
1.95071e-06
1.95287e-06
1.95288e-06
1.95214e-06
1.94933e-06
1.95284e-06
1.95263e-06
1.92793e-06
1.92782e-06
1.92744e-06
1.9243e-06
1.92436e-06
1.92388e-06
1.92461e-06
1.92831e-06
1.92815e-06
1.92743e-06
1.92199e-06
1.91952e-06
1.91952e-06
1.91952e-06
1.91952e-06
1.92534e-06
1.92606e-06
1.9243e-06
1.91952e-06
1.91952e-06
1.91952e-06
1.91952e-06
1.91952e-06
1.91952e-06
1.92787e-06
1.9293e-06
1.92799e-06
1.92432e-06
1.91952e-06
1.91952e-06
1.91952e-06
1.91952e-06
1.91952e-06
1.91952e-06
1.92864e-06
1.92857e-06
1.92789e-06
1.92391e-06
1.91952e-06
1.91952e-06
1.91952e-06
1.91952e-06
1.91952e-06
1.91952e-06
1.9286e-06
1.92576e-06
1.92462e-06
1.91952e-06
1.91952e-06
1.91952e-06
1.91952e-06
1.91952e-06
1.91952e-06
1.92844e-06
1.92926e-06
1.92831e-06
1.92533e-06
1.91952e-06
1.91952e-06
1.91952e-06
1.91952e-06
1.92918e-06
1.92714e-06
1.92906e-06
1.92815e-06
1.92605e-06
1.92787e-06
1.92865e-06
1.92861e-06
1.92844e-06
1.92713e-06
1.9293e-06
1.92931e-06
1.92857e-06
1.92576e-06
1.92927e-06
1.92906e-06
1.90437e-06
1.90426e-06
1.90386e-06
1.90073e-06
1.90079e-06
1.90031e-06
1.90104e-06
1.90474e-06
1.90458e-06
1.90385e-06
1.89842e-06
1.89595e-06
1.89595e-06
1.89595e-06
1.89595e-06
1.90176e-06
1.90248e-06
1.90072e-06
1.89595e-06
1.89595e-06
1.89595e-06
1.89595e-06
1.89595e-06
1.89595e-06
1.90429e-06
1.90573e-06
1.90436e-06
1.90078e-06
1.89595e-06
1.89595e-06
1.89595e-06
1.89595e-06
1.89595e-06
1.89595e-06
1.90507e-06
1.905e-06
1.90423e-06
1.90032e-06
1.89595e-06
1.89595e-06
1.89595e-06
1.89595e-06
1.89595e-06
1.89595e-06
1.90503e-06
1.90219e-06
1.90104e-06
1.89595e-06
1.89595e-06
1.89595e-06
1.89595e-06
1.89595e-06
1.89595e-06
1.90486e-06
1.90569e-06
1.90474e-06
1.90176e-06
1.89595e-06
1.89595e-06
1.89595e-06
1.89595e-06
1.90561e-06
1.90357e-06
1.90549e-06
1.90459e-06
1.90248e-06
1.9043e-06
1.90507e-06
1.90503e-06
1.90486e-06
1.90356e-06
1.90573e-06
1.90574e-06
1.905e-06
1.90219e-06
1.90569e-06
1.90549e-06
1.88079e-06
1.88068e-06
1.88029e-06
1.87716e-06
1.87722e-06
1.87674e-06
1.87747e-06
1.88117e-06
1.88101e-06
1.88027e-06
1.87485e-06
1.87238e-06
1.87238e-06
1.87238e-06
1.87238e-06
1.87819e-06
1.87891e-06
1.87715e-06
1.87238e-06
1.87238e-06
1.87238e-06
1.87238e-06
1.87238e-06
1.87238e-06
1.88072e-06
1.88216e-06
1.88082e-06
1.8772e-06
1.87238e-06
1.87238e-06
1.87238e-06
1.87238e-06
1.87238e-06
1.87238e-06
1.8815e-06
1.88143e-06
1.88071e-06
1.87674e-06
1.87238e-06
1.87238e-06
1.87238e-06
1.87238e-06
1.87238e-06
1.87238e-06
1.88146e-06
1.87862e-06
1.87748e-06
1.87238e-06
1.87238e-06
1.87238e-06
1.87238e-06
1.87238e-06
1.87238e-06
1.88129e-06
1.88212e-06
1.88117e-06
1.87819e-06
1.87238e-06
1.87238e-06
1.87238e-06
1.87238e-06
1.88204e-06
1.88e-06
1.88192e-06
1.88101e-06
1.87891e-06
1.88073e-06
1.8815e-06
1.88146e-06
1.88129e-06
1.87999e-06
1.88215e-06
1.88217e-06
1.88143e-06
1.8786e-06
1.88212e-06
1.88191e-06
1.85722e-06
1.85711e-06
1.85672e-06
1.85359e-06
1.85365e-06
1.85317e-06
1.8539e-06
1.8576e-06
1.85744e-06
1.85671e-06
1.85127e-06
1.84881e-06
1.84881e-06
1.84881e-06
1.84881e-06
1.85462e-06
1.85534e-06
1.85358e-06
1.84881e-06
1.84881e-06
1.84881e-06
1.84881e-06
1.84881e-06
1.84881e-06
1.85715e-06
1.85859e-06
1.85723e-06
1.85365e-06
1.84881e-06
1.84881e-06
1.84881e-06
1.84881e-06
1.84881e-06
1.84881e-06
1.85793e-06
1.85786e-06
1.85713e-06
1.85317e-06
1.84881e-06
1.84881e-06
1.84881e-06
1.84881e-06
1.84881e-06
1.84881e-06
1.85789e-06
1.85505e-06
1.8539e-06
1.84881e-06
1.84881e-06
1.84881e-06
1.84881e-06
1.84881e-06
1.84881e-06
1.85772e-06
1.85855e-06
1.8576e-06
1.85462e-06
1.84881e-06
1.84881e-06
1.84881e-06
1.84881e-06
1.85847e-06
1.85643e-06
1.85835e-06
1.85744e-06
1.85534e-06
1.85715e-06
1.85792e-06
1.85789e-06
1.85771e-06
1.85642e-06
1.85858e-06
1.85861e-06
1.85791e-06
1.855e-06
1.85853e-06
1.85834e-06
1.83366e-06
1.83355e-06
1.83315e-06
1.83002e-06
1.83007e-06
1.8296e-06
1.83033e-06
1.83403e-06
1.83387e-06
1.83314e-06
1.82771e-06
1.82524e-06
1.82524e-06
1.82524e-06
1.82524e-06
1.83105e-06
1.83177e-06
1.83001e-06
1.82524e-06
1.82524e-06
1.82524e-06
1.82524e-06
1.82524e-06
1.82524e-06
1.83358e-06
1.83502e-06
1.83364e-06
1.83009e-06
1.82524e-06
1.82524e-06
1.82524e-06
1.82524e-06
1.82524e-06
1.82524e-06
1.83436e-06
1.83429e-06
1.83352e-06
1.82961e-06
1.82524e-06
1.82524e-06
1.82524e-06
1.82524e-06
1.82524e-06
1.82524e-06
1.83432e-06
1.83147e-06
1.83033e-06
1.82524e-06
1.82524e-06
1.82524e-06
1.82524e-06
1.82524e-06
1.82524e-06
1.83415e-06
1.83498e-06
1.83403e-06
1.83106e-06
1.82524e-06
1.82524e-06
1.82524e-06
1.82524e-06
1.8349e-06
1.83285e-06
1.83478e-06
1.83387e-06
1.83177e-06
1.83359e-06
1.83436e-06
1.83434e-06
1.83414e-06
1.83285e-06
1.83501e-06
1.83504e-06
1.83434e-06
1.83146e-06
1.83496e-06
1.83476e-06
1.81008e-06
1.80997e-06
1.80958e-06
1.80645e-06
1.80651e-06
1.80603e-06
1.80676e-06
1.81046e-06
1.8103e-06
1.80956e-06
1.80413e-06
1.80167e-06
1.80167e-06
1.80167e-06
1.80167e-06
1.80748e-06
1.8082e-06
1.80644e-06
1.80167e-06
1.80167e-06
1.80167e-06
1.80167e-06
1.80167e-06
1.80167e-06
1.81001e-06
1.81145e-06
1.81009e-06
1.80651e-06
1.80167e-06
1.80167e-06
1.80167e-06
1.80167e-06
1.80167e-06
1.80167e-06
1.81079e-06
1.81072e-06
1.80996e-06
1.80603e-06
1.80167e-06
1.80167e-06
1.80167e-06
1.80167e-06
1.80167e-06
1.80167e-06
1.81074e-06
1.8079e-06
1.80676e-06
1.80167e-06
1.80167e-06
1.80167e-06
1.80167e-06
1.80167e-06
1.80167e-06
1.81058e-06
1.8114e-06
1.81045e-06
1.80748e-06
1.80167e-06
1.80167e-06
1.80167e-06
1.80166e-06
1.81133e-06
1.80929e-06
1.81121e-06
1.8103e-06
1.80819e-06
1.81e-06
1.81078e-06
1.81078e-06
1.81059e-06
1.80928e-06
1.81144e-06
1.81145e-06
1.81067e-06
1.80795e-06
1.81142e-06
1.81121e-06
1.78651e-06
1.78639e-06
1.78601e-06
1.78288e-06
1.78294e-06
1.78246e-06
1.78319e-06
1.78688e-06
1.78673e-06
1.78599e-06
1.78056e-06
1.7781e-06
1.7781e-06
1.7781e-06
1.77809e-06
1.78391e-06
1.78463e-06
1.78287e-06
1.77809e-06
1.7781e-06
1.7781e-06
1.7781e-06
1.7781e-06
1.7781e-06
1.78644e-06
1.78788e-06
1.78653e-06
1.78293e-06
1.77809e-06
1.7781e-06
1.7781e-06
1.7781e-06
1.7781e-06
1.7781e-06
1.78722e-06
1.78715e-06
1.78639e-06
1.78246e-06
1.77809e-06
1.7781e-06
1.7781e-06
1.7781e-06
1.7781e-06
1.7781e-06
1.78717e-06
1.78433e-06
1.78319e-06
1.77809e-06
1.77809e-06
1.7781e-06
1.7781e-06
1.7781e-06
1.77809e-06
1.78701e-06
1.78783e-06
1.78688e-06
1.78391e-06
1.77809e-06
1.7781e-06
1.7781e-06
1.7781e-06
1.78776e-06
1.78572e-06
1.78764e-06
1.78673e-06
1.78462e-06
1.78643e-06
1.7872e-06
1.78722e-06
1.78702e-06
1.78572e-06
1.78787e-06
1.78786e-06
1.78708e-06
1.78441e-06
1.78785e-06
1.78764e-06
1.76294e-06
1.76282e-06
1.76244e-06
1.7593e-06
1.75937e-06
1.75889e-06
1.75962e-06
1.76331e-06
1.76316e-06
1.76242e-06
1.75699e-06
1.75453e-06
1.75452e-06
1.75452e-06
1.75452e-06
1.76034e-06
1.76106e-06
1.7593e-06
1.75453e-06
1.75452e-06
1.75452e-06
1.75452e-06
1.75452e-06
1.75452e-06
1.76287e-06
1.76431e-06
1.76294e-06
1.75936e-06
1.75453e-06
1.75453e-06
1.75453e-06
1.75452e-06
1.75452e-06
1.75452e-06
1.76365e-06
1.76358e-06
1.76284e-06
1.75889e-06
1.75453e-06
1.75453e-06
1.75453e-06
1.75453e-06
1.75452e-06
1.75452e-06
1.7636e-06
1.76076e-06
1.75962e-06
1.75453e-06
1.75453e-06
1.75453e-06
1.75453e-06
1.75452e-06
1.75452e-06
1.76344e-06
1.76426e-06
1.76331e-06
1.76034e-06
1.75452e-06
1.75453e-06
1.75453e-06
1.75453e-06
1.76419e-06
1.76214e-06
1.76406e-06
1.76316e-06
1.76106e-06
1.76287e-06
1.76364e-06
1.76361e-06
1.76342e-06
1.76214e-06
1.76429e-06
1.76432e-06
1.76362e-06
1.76072e-06
1.76424e-06
1.76405e-06
1.73937e-06
1.73926e-06
1.73887e-06
1.73573e-06
1.7358e-06
1.73532e-06
1.73605e-06
1.73974e-06
1.73959e-06
1.73885e-06
1.73342e-06
1.73096e-06
1.73096e-06
1.73096e-06
1.73095e-06
1.73677e-06
1.73749e-06
1.73573e-06
1.73095e-06
1.73095e-06
1.73095e-06
1.73095e-06
1.73095e-06
1.73095e-06
1.7393e-06
1.74074e-06
1.73937e-06
1.73579e-06
1.73095e-06
1.73096e-06
1.73096e-06
1.73095e-06
1.73095e-06
1.73095e-06
1.74008e-06
1.74001e-06
1.73927e-06
1.73532e-06
1.73096e-06
1.73096e-06
1.73096e-06
1.73096e-06
1.73095e-06
1.73095e-06
1.74003e-06
1.73719e-06
1.73605e-06
1.73096e-06
1.73096e-06
1.73096e-06
1.73096e-06
1.73095e-06
1.73095e-06
1.73987e-06
1.74069e-06
1.73975e-06
1.73678e-06
1.73096e-06
1.73096e-06
1.73096e-06
1.73095e-06
1.74062e-06
1.73857e-06
1.7405e-06
1.73959e-06
1.73749e-06
1.73931e-06
1.74008e-06
1.74006e-06
1.73986e-06
1.73857e-06
1.74073e-06
1.74076e-06
1.74006e-06
1.73718e-06
1.74067e-06
1.74047e-06
1.71579e-06
1.71568e-06
1.7153e-06
1.71216e-06
1.71223e-06
1.71175e-06
1.71247e-06
1.71618e-06
1.71602e-06
1.71528e-06
1.70985e-06
1.70738e-06
1.70738e-06
1.70738e-06
1.70738e-06
1.7132e-06
1.71392e-06
1.71216e-06
1.70738e-06
1.70738e-06
1.70738e-06
1.70738e-06
1.70738e-06
1.70738e-06
1.71573e-06
1.71717e-06
1.7158e-06
1.71223e-06
1.70738e-06
1.70738e-06
1.70738e-06
1.70738e-06
1.70738e-06
1.70739e-06
1.71651e-06
1.71643e-06
1.71569e-06
1.71174e-06
1.70738e-06
1.70738e-06
1.70738e-06
1.70738e-06
1.70738e-06
1.70739e-06
1.71646e-06
1.71362e-06
1.71248e-06
1.70738e-06
1.70738e-06
1.70738e-06
1.70738e-06
1.70738e-06
1.70738e-06
1.7163e-06
1.71712e-06
1.71617e-06
1.7132e-06
1.70738e-06
1.70738e-06
1.70738e-06
1.70738e-06
1.71705e-06
1.71501e-06
1.71693e-06
1.71602e-06
1.71391e-06
1.71572e-06
1.7165e-06
1.71649e-06
1.7163e-06
1.715e-06
1.71716e-06
1.71716e-06
1.7164e-06
1.71365e-06
1.71713e-06
1.71692e-06
1.69222e-06
1.69211e-06
1.69173e-06
1.68859e-06
1.68865e-06
1.68817e-06
1.68891e-06
1.69261e-06
1.69245e-06
1.69171e-06
1.68628e-06
1.68381e-06
1.68381e-06
1.68381e-06
1.68381e-06
1.68963e-06
1.69035e-06
1.68859e-06
1.68381e-06
1.68381e-06
1.68381e-06
1.68381e-06
1.68381e-06
1.68381e-06
1.69216e-06
1.6936e-06
1.69224e-06
1.68864e-06
1.68381e-06
1.68381e-06
1.68381e-06
1.68381e-06
1.68381e-06
1.68382e-06
1.69294e-06
1.69286e-06
1.69213e-06
1.68817e-06
1.68381e-06
1.68381e-06
1.68381e-06
1.68381e-06
1.68381e-06
1.68381e-06
1.69289e-06
1.69005e-06
1.68891e-06
1.68381e-06
1.68381e-06
1.68381e-06
1.68381e-06
1.68381e-06
1.68381e-06
1.69273e-06
1.69355e-06
1.6926e-06
1.68962e-06
1.68382e-06
1.68381e-06
1.68381e-06
1.68381e-06
1.69348e-06
1.69143e-06
1.69336e-06
1.69245e-06
1.69034e-06
1.69215e-06
1.69292e-06
1.69292e-06
1.69274e-06
1.69144e-06
1.69359e-06
1.69358e-06
1.69278e-06
1.69011e-06
1.69357e-06
1.69336e-06
1.66867e-06
1.66856e-06
1.66816e-06
1.66502e-06
1.66507e-06
1.6646e-06
1.66534e-06
1.66903e-06
1.66888e-06
1.66814e-06
1.66271e-06
1.66024e-06
1.66024e-06
1.66024e-06
1.66024e-06
1.66606e-06
1.66678e-06
1.66502e-06
1.66024e-06
1.66024e-06
1.66024e-06
1.66024e-06
1.66024e-06
1.66024e-06
1.66859e-06
1.67003e-06
1.66866e-06
1.66509e-06
1.66024e-06
1.66024e-06
1.66024e-06
1.66024e-06
1.66024e-06
1.66024e-06
1.66937e-06
1.66929e-06
1.66855e-06
1.6646e-06
1.66024e-06
1.66024e-06
1.66024e-06
1.66024e-06
1.66024e-06
1.66024e-06
1.66932e-06
1.66648e-06
1.66534e-06
1.66024e-06
1.66024e-06
1.66024e-06
1.66024e-06
1.66024e-06
1.66024e-06
1.66916e-06
1.66998e-06
1.66903e-06
1.66605e-06
1.66024e-06
1.66024e-06
1.66024e-06
1.66024e-06
1.66991e-06
1.66786e-06
1.66978e-06
1.66888e-06
1.66677e-06
1.66859e-06
1.66936e-06
1.66935e-06
1.66916e-06
1.66786e-06
1.67001e-06
1.67003e-06
1.66925e-06
1.66652e-06
1.67e-06
1.66979e-06
1.64509e-06
1.64498e-06
1.64459e-06
1.64145e-06
1.64151e-06
1.64103e-06
1.64177e-06
1.64546e-06
1.64531e-06
1.64457e-06
1.63914e-06
1.63667e-06
1.63667e-06
1.63667e-06
1.63667e-06
1.64249e-06
1.64321e-06
1.64145e-06
1.63667e-06
1.63667e-06
1.63667e-06
1.63667e-06
1.63667e-06
1.63667e-06
1.64502e-06
1.64646e-06
1.64509e-06
1.64152e-06
1.63667e-06
1.63667e-06
1.63667e-06
1.63667e-06
1.63667e-06
1.63667e-06
1.64579e-06
1.64572e-06
1.64498e-06
1.64104e-06
1.63667e-06
1.63667e-06
1.63667e-06
1.63667e-06
1.63667e-06
1.63667e-06
1.64575e-06
1.64291e-06
1.64176e-06
1.63667e-06
1.63667e-06
1.63667e-06
1.63667e-06
1.63667e-06
1.63667e-06
1.64559e-06
1.64641e-06
1.64546e-06
1.64248e-06
1.63667e-06
1.63667e-06
1.63667e-06
1.63667e-06
1.64634e-06
1.64429e-06
1.64621e-06
1.64531e-06
1.6432e-06
1.64502e-06
1.6458e-06
1.64576e-06
1.64558e-06
1.64429e-06
1.64645e-06
1.64647e-06
1.64572e-06
1.64291e-06
1.64641e-06
1.6462e-06
1.62152e-06
1.62141e-06
1.62102e-06
1.61789e-06
1.61795e-06
1.61746e-06
1.6182e-06
1.62189e-06
1.62174e-06
1.621e-06
1.61556e-06
1.6131e-06
1.6131e-06
1.6131e-06
1.6131e-06
1.61892e-06
1.61964e-06
1.61787e-06
1.6131e-06
1.6131e-06
1.6131e-06
1.6131e-06
1.6131e-06
1.6131e-06
1.62145e-06
1.62289e-06
1.62149e-06
1.61794e-06
1.6131e-06
1.6131e-06
1.6131e-06
1.6131e-06
1.6131e-06
1.6131e-06
1.62222e-06
1.62215e-06
1.62136e-06
1.6175e-06
1.6131e-06
1.6131e-06
1.6131e-06
1.6131e-06
1.6131e-06
1.6131e-06
1.62218e-06
1.61934e-06
1.61819e-06
1.6131e-06
1.6131e-06
1.6131e-06
1.6131e-06
1.6131e-06
1.6131e-06
1.62202e-06
1.62284e-06
1.62189e-06
1.61892e-06
1.6131e-06
1.6131e-06
1.6131e-06
1.6131e-06
1.62276e-06
1.62072e-06
1.62264e-06
1.62174e-06
1.61963e-06
1.62145e-06
1.62223e-06
1.62218e-06
1.62202e-06
1.62072e-06
1.62288e-06
1.62289e-06
1.62215e-06
1.61934e-06
1.62284e-06
1.62263e-06
1.59795e-06
1.59784e-06
1.59745e-06
1.59432e-06
1.59437e-06
1.59389e-06
1.59462e-06
1.59832e-06
1.59816e-06
1.59743e-06
1.592e-06
1.58953e-06
1.58953e-06
1.58953e-06
1.58953e-06
1.59535e-06
1.59607e-06
1.59431e-06
1.58953e-06
1.58953e-06
1.58953e-06
1.58953e-06
1.58953e-06
1.58953e-06
1.59788e-06
1.59931e-06
1.59787e-06
1.59437e-06
1.58953e-06
1.58953e-06
1.58953e-06
1.58953e-06
1.58953e-06
1.58953e-06
1.59865e-06
1.59858e-06
1.59777e-06
1.59394e-06
1.58953e-06
1.58953e-06
1.58953e-06
1.58953e-06
1.58953e-06
1.58953e-06
1.59861e-06
1.59577e-06
1.5946e-06
1.58953e-06
1.58953e-06
1.58953e-06
1.58953e-06
1.58953e-06
1.58953e-06
1.59845e-06
1.59927e-06
1.59831e-06
1.59534e-06
1.58953e-06
1.58953e-06
1.58953e-06
1.58953e-06
1.59919e-06
1.59715e-06
1.59907e-06
1.59816e-06
1.59605e-06
1.59788e-06
1.59866e-06
1.59862e-06
1.59845e-06
1.59715e-06
1.59931e-06
1.59932e-06
1.59858e-06
1.59577e-06
1.59927e-06
1.59906e-06
1.57438e-06
1.57427e-06
1.57388e-06
1.57074e-06
1.5708e-06
1.57032e-06
1.57105e-06
1.57475e-06
1.57459e-06
1.57386e-06
1.56843e-06
1.56596e-06
1.56596e-06
1.56596e-06
1.56596e-06
1.57178e-06
1.5725e-06
1.57074e-06
1.56596e-06
1.56596e-06
1.56596e-06
1.56596e-06
1.56596e-06
1.56596e-06
1.57431e-06
1.57575e-06
1.57432e-06
1.57077e-06
1.56596e-06
1.56596e-06
1.56596e-06
1.56596e-06
1.56596e-06
1.56596e-06
1.57508e-06
1.57501e-06
1.57425e-06
1.57035e-06
1.56596e-06
1.56596e-06
1.56596e-06
1.56596e-06
1.56596e-06
1.56596e-06
1.57504e-06
1.5722e-06
1.57104e-06
1.56596e-06
1.56596e-06
1.56596e-06
1.56596e-06
1.56596e-06
1.56596e-06
1.57488e-06
1.5757e-06
1.57475e-06
1.57178e-06
1.56596e-06
1.56596e-06
1.56596e-06
1.56596e-06
1.57562e-06
1.57358e-06
1.5755e-06
1.5746e-06
1.57249e-06
1.57431e-06
1.57508e-06
1.57504e-06
1.57487e-06
1.57357e-06
1.57574e-06
1.57576e-06
1.57502e-06
1.5722e-06
1.5757e-06
1.57549e-06
1.55081e-06
1.5507e-06
1.55031e-06
1.54717e-06
1.54723e-06
1.54675e-06
1.54748e-06
1.55118e-06
1.55103e-06
1.55029e-06
1.54486e-06
1.54239e-06
1.54239e-06
1.54239e-06
1.54239e-06
1.54821e-06
1.54893e-06
1.54717e-06
1.54239e-06
1.54239e-06
1.54239e-06
1.54239e-06
1.54239e-06
1.54239e-06
1.55074e-06
1.55218e-06
1.5508e-06
1.54724e-06
1.54239e-06
1.54239e-06
1.54239e-06
1.54239e-06
1.54239e-06
1.54239e-06
1.55151e-06
1.55144e-06
1.55069e-06
1.54677e-06
1.54239e-06
1.54239e-06
1.54239e-06
1.54239e-06
1.54239e-06
1.54239e-06
1.55147e-06
1.54863e-06
1.54748e-06
1.54239e-06
1.54239e-06
1.54239e-06
1.54239e-06
1.54239e-06
1.54239e-06
1.55131e-06
1.55213e-06
1.55117e-06
1.54821e-06
1.54239e-06
1.54239e-06
1.54239e-06
1.54239e-06
1.55205e-06
1.55001e-06
1.55193e-06
1.55102e-06
1.54892e-06
1.55074e-06
1.55151e-06
1.55147e-06
1.55131e-06
1.55e-06
1.55217e-06
1.55218e-06
1.55145e-06
1.54863e-06
1.55214e-06
1.55193e-06
1.52724e-06
1.52713e-06
1.52674e-06
1.5236e-06
1.52366e-06
1.52318e-06
1.52391e-06
1.52761e-06
1.52745e-06
1.52672e-06
1.52129e-06
1.51882e-06
1.51882e-06
1.51882e-06
1.51882e-06
1.52463e-06
1.52536e-06
1.5236e-06
1.51882e-06
1.51882e-06
1.51882e-06
1.51882e-06
1.51882e-06
1.51882e-06
1.52717e-06
1.5286e-06
1.52723e-06
1.52366e-06
1.51882e-06
1.51882e-06
1.51882e-06
1.51882e-06
1.51882e-06
1.51882e-06
1.52794e-06
1.52787e-06
1.52712e-06
1.52319e-06
1.51882e-06
1.51882e-06
1.51882e-06
1.51882e-06
1.51882e-06
1.51882e-06
1.5279e-06
1.52506e-06
1.52391e-06
1.51882e-06
1.51882e-06
1.51882e-06
1.51882e-06
1.51882e-06
1.51882e-06
1.52774e-06
1.52856e-06
1.5276e-06
1.52464e-06
1.51882e-06
1.51882e-06
1.51882e-06
1.51882e-06
1.52848e-06
1.52644e-06
1.52836e-06
1.52745e-06