/*--------------------------------*- C++ -*----------------------------------*\
| =========                 |                                                 |
| \\      /  F ield         | OpenFOAM: The Open Source CFD Toolbox           |
|  \\    /   O peration     | Version:  v2012                                 |
|   \\  /    A nd           | Website:  www.openfoam.com                      |
|    \\/     M anipulation  |                                                 |
\*---------------------------------------------------------------------------*/
FoamFile
{
    version     2.0;
    format      ascii;
    class       volScalarField;
    location    "19";
    object      p;
}
// * * * * * * * * * * * * * * * * * * * * * * * * * * * * * * * * * * * * * //

dimensions      [0 2 -2 0 0 0 0];


internalField   nonuniform List<scalar> 
244288
(
1.41434e-06
1.4144e-06
1.41438e-06
1.41431e-06
1.41426e-06
1.41432e-06
1.41438e-06
1.4144e-06
1.41443e-06
1.41422e-06
1.41398e-06
1.4139e-06
1.41401e-06
1.41425e-06
1.41444e-06
1.41438e-06
1.41422e-06
1.41383e-06
1.41351e-06
1.4134e-06
1.41354e-06
1.41388e-06
1.41426e-06
1.41437e-06
1.41431e-06
1.41398e-06
1.41351e-06
1.41314e-06
1.41302e-06
1.41318e-06
1.41356e-06
1.41404e-06
1.41432e-06
1.41434e-06
1.41426e-06
1.4139e-06
1.4134e-06
1.41302e-06
1.41289e-06
1.41305e-06
1.41346e-06
1.41396e-06
1.41428e-06
1.41432e-06
1.41401e-06
1.41354e-06
1.41318e-06
1.41305e-06
1.41321e-06
1.41359e-06
1.41406e-06
1.41433e-06
1.41438e-06
1.41425e-06
1.41388e-06
1.41356e-06
1.41346e-06
1.41359e-06
1.41393e-06
1.41429e-06
1.41437e-06
1.41444e-06
1.41426e-06
1.41404e-06
1.41396e-06
1.41406e-06
1.41429e-06
1.41444e-06
1.41437e-06
1.41432e-06
1.41428e-06
1.41433e-06
1.41437e-06
1.39355e-06
1.39324e-06
1.39309e-06
1.39173e-06
1.39163e-06
1.39162e-06
1.39166e-06
1.39305e-06
1.39316e-06
1.3931e-06
1.39124e-06
1.38898e-06
1.38898e-06
1.38898e-06
1.38898e-06
1.39135e-06
1.39186e-06
1.39173e-06
1.38898e-06
1.38894e-06
1.38898e-06
1.38898e-06
1.38894e-06
1.38898e-06
1.39182e-06
1.3933e-06
1.39355e-06
1.39163e-06
1.38898e-06
1.38898e-06
1.38903e-06
1.38903e-06
1.38898e-06
1.38898e-06
1.39178e-06
1.39307e-06
1.39324e-06
1.39162e-06
1.38898e-06
1.38898e-06
1.38903e-06
1.38903e-06
1.38898e-06
1.38898e-06
1.39174e-06
1.39198e-06
1.39166e-06
1.38898e-06
1.38894e-06
1.38898e-06
1.38898e-06
1.38894e-06
1.38898e-06
1.3918e-06
1.39322e-06
1.39305e-06
1.39135e-06
1.38898e-06
1.38898e-06
1.38898e-06
1.38898e-06
1.39141e-06
1.39187e-06
1.39331e-06
1.39316e-06
1.39186e-06
1.39182e-06
1.39178e-06
1.39174e-06
1.3918e-06
1.39187e-06
1.39304e-06
1.3933e-06
1.39307e-06
1.39198e-06
1.39322e-06
1.39331e-06
1.37868e-06
1.37856e-06
1.37846e-06
1.37701e-06
1.37693e-06
1.37689e-06
1.37698e-06
1.37839e-06
1.37856e-06
1.37846e-06
1.37655e-06
1.37414e-06
1.37413e-06
1.37413e-06
1.37414e-06
1.37665e-06
1.37723e-06
1.37701e-06
1.37414e-06
1.37411e-06
1.37412e-06
1.37412e-06
1.37411e-06
1.37414e-06
1.37715e-06
1.37865e-06
1.37868e-06
1.37693e-06
1.37413e-06
1.37412e-06
1.37413e-06
1.37413e-06
1.37412e-06
1.37414e-06
1.3771e-06
1.37842e-06
1.37856e-06
1.37689e-06
1.37413e-06
1.37412e-06
1.37413e-06
1.37413e-06
1.37412e-06
1.37414e-06
1.37707e-06
1.37732e-06
1.37698e-06
1.37414e-06
1.37411e-06
1.37412e-06
1.37412e-06
1.37412e-06
1.37414e-06
1.37713e-06
1.3786e-06
1.37839e-06
1.37665e-06
1.37414e-06
1.37414e-06
1.37414e-06
1.37414e-06
1.37674e-06
1.3772e-06
1.37867e-06
1.37856e-06
1.37723e-06
1.37715e-06
1.3771e-06
1.37707e-06
1.37713e-06
1.3772e-06
1.37847e-06
1.37865e-06
1.37842e-06
1.37732e-06
1.3786e-06
1.37867e-06
1.36387e-06
1.36375e-06
1.36364e-06
1.36219e-06
1.3621e-06
1.36206e-06
1.36216e-06
1.36358e-06
1.36375e-06
1.36364e-06
1.36172e-06
1.3593e-06
1.3593e-06
1.3593e-06
1.3593e-06
1.36181e-06
1.36241e-06
1.36219e-06
1.3593e-06
1.35929e-06
1.3593e-06
1.3593e-06
1.35929e-06
1.3593e-06
1.36233e-06
1.36384e-06
1.36387e-06
1.3621e-06
1.3593e-06
1.3593e-06
1.3593e-06
1.3593e-06
1.3593e-06
1.3593e-06
1.36229e-06
1.36362e-06
1.36375e-06
1.36206e-06
1.3593e-06
1.3593e-06
1.3593e-06
1.3593e-06
1.3593e-06
1.3593e-06
1.36226e-06
1.36252e-06
1.36216e-06
1.3593e-06
1.35929e-06
1.3593e-06
1.3593e-06
1.35929e-06
1.3593e-06
1.36231e-06
1.36379e-06
1.36358e-06
1.36181e-06
1.3593e-06
1.3593e-06
1.3593e-06
1.3593e-06
1.36193e-06
1.36239e-06
1.36386e-06
1.36375e-06
1.36241e-06
1.36233e-06
1.36229e-06
1.36226e-06
1.36231e-06
1.36239e-06
1.36366e-06
1.36384e-06
1.36362e-06
1.36252e-06
1.36379e-06
1.36386e-06
1.34904e-06
1.34893e-06
1.34882e-06
1.34736e-06
1.34727e-06
1.34723e-06
1.34733e-06
1.34875e-06
1.34892e-06
1.34882e-06
1.3469e-06
1.34447e-06
1.34447e-06
1.34447e-06
1.34447e-06
1.34698e-06
1.34759e-06
1.34736e-06
1.34447e-06
1.34447e-06
1.34447e-06
1.34447e-06
1.34447e-06
1.34447e-06
1.3475e-06
1.34902e-06
1.34904e-06
1.34727e-06
1.34447e-06
1.34447e-06
1.34447e-06
1.34447e-06
1.34447e-06
1.34447e-06
1.34746e-06
1.34879e-06
1.34893e-06
1.34723e-06
1.34447e-06
1.34447e-06
1.34447e-06
1.34447e-06
1.34447e-06
1.34447e-06
1.34743e-06
1.34769e-06
1.34733e-06
1.34447e-06
1.34447e-06
1.34447e-06
1.34447e-06
1.34447e-06
1.34447e-06
1.34749e-06
1.34897e-06
1.34875e-06
1.34698e-06
1.34447e-06
1.34447e-06
1.34447e-06
1.34447e-06
1.34711e-06
1.34757e-06
1.34904e-06
1.34892e-06
1.34759e-06
1.3475e-06
1.34746e-06
1.34743e-06
1.34749e-06
1.34757e-06
1.34883e-06
1.34902e-06
1.34879e-06
1.34769e-06
1.34897e-06
1.34904e-06
1.33422e-06
1.33411e-06
1.33399e-06
1.33254e-06
1.33245e-06
1.33241e-06
1.33251e-06
1.33392e-06
1.3341e-06
1.33399e-06
1.33207e-06
1.32964e-06
1.32964e-06
1.32964e-06
1.32964e-06
1.33216e-06
1.33276e-06
1.33254e-06
1.32964e-06
1.32964e-06
1.32964e-06
1.32964e-06
1.32964e-06
1.32964e-06
1.33268e-06
1.33419e-06
1.33422e-06
1.33245e-06
1.32964e-06
1.32964e-06
1.32964e-06
1.32964e-06
1.32964e-06
1.32964e-06
1.33264e-06
1.33397e-06
1.33411e-06
1.33241e-06
1.32964e-06
1.32964e-06
1.32964e-06
1.32964e-06
1.32964e-06
1.32964e-06
1.33261e-06
1.33287e-06
1.3325e-06
1.32964e-06
1.32964e-06
1.32964e-06
1.32964e-06
1.32964e-06
1.32964e-06
1.33266e-06
1.33414e-06
1.33393e-06
1.33216e-06
1.32964e-06
1.32964e-06
1.32964e-06
1.32964e-06
1.33229e-06
1.33274e-06
1.33421e-06
1.3341e-06
1.33276e-06
1.33268e-06
1.33264e-06
1.33261e-06
1.33266e-06
1.33274e-06
1.33401e-06
1.33419e-06
1.33397e-06
1.33287e-06
1.33414e-06
1.33421e-06
1.31939e-06
1.31928e-06
1.31917e-06
1.31771e-06
1.31762e-06
1.31758e-06
1.31768e-06
1.3191e-06
1.31927e-06
1.31917e-06
1.31724e-06
1.31482e-06
1.31481e-06
1.31482e-06
1.31482e-06
1.31733e-06
1.31793e-06
1.31771e-06
1.31482e-06
1.31482e-06
1.31482e-06
1.31482e-06
1.31482e-06
1.31482e-06
1.31785e-06
1.31937e-06
1.31939e-06
1.31762e-06
1.31482e-06
1.31482e-06
1.31482e-06
1.31482e-06
1.31482e-06
1.31482e-06
1.31781e-06
1.31914e-06
1.31928e-06
1.31758e-06
1.31482e-06
1.31482e-06
1.31482e-06
1.31482e-06
1.31482e-06
1.31482e-06
1.31778e-06
1.31804e-06
1.31768e-06
1.31482e-06
1.31482e-06
1.31482e-06
1.31482e-06
1.31482e-06
1.31482e-06
1.31784e-06
1.31932e-06
1.3191e-06
1.31733e-06
1.31482e-06
1.31482e-06
1.31482e-06
1.31482e-06
1.31746e-06
1.31792e-06
1.31938e-06
1.31927e-06
1.31793e-06
1.31785e-06
1.31781e-06
1.31778e-06
1.31784e-06
1.31792e-06
1.31918e-06
1.31937e-06
1.31914e-06
1.31804e-06
1.31932e-06
1.31938e-06
1.30457e-06
1.30445e-06
1.30434e-06
1.30288e-06
1.3028e-06
1.30275e-06
1.30285e-06
1.30427e-06
1.30444e-06
1.30434e-06
1.30242e-06
1.29999e-06
1.29999e-06
1.29999e-06
1.29999e-06
1.3025e-06
1.30311e-06
1.30288e-06
1.29999e-06
1.29999e-06
1.29999e-06
1.29999e-06
1.29999e-06
1.29999e-06
1.30303e-06
1.30454e-06
1.30457e-06
1.30279e-06
1.29999e-06
1.29999e-06
1.29999e-06
1.29999e-06
1.29999e-06
1.29999e-06
1.30299e-06
1.30432e-06
1.30445e-06
1.30275e-06
1.29999e-06
1.29999e-06
1.29999e-06
1.29999e-06
1.29999e-06
1.29999e-06
1.30296e-06
1.30322e-06
1.30285e-06
1.29999e-06
1.29999e-06
1.29999e-06
1.29999e-06
1.29999e-06
1.29999e-06
1.30301e-06
1.30449e-06
1.30427e-06
1.3025e-06
1.29999e-06
1.29999e-06
1.29999e-06
1.29999e-06
1.30263e-06
1.30309e-06
1.30456e-06
1.30444e-06
1.30311e-06
1.30302e-06
1.30299e-06
1.30296e-06
1.30301e-06
1.30309e-06
1.30436e-06
1.30454e-06
1.30432e-06
1.30322e-06
1.30449e-06
1.30456e-06
1.28974e-06
1.28963e-06
1.28952e-06
1.28806e-06
1.28797e-06
1.28793e-06
1.28803e-06
1.28945e-06
1.28962e-06
1.28952e-06
1.28759e-06
1.28516e-06
1.28516e-06
1.28517e-06
1.28516e-06
1.28768e-06
1.28828e-06
1.28806e-06
1.28516e-06
1.28516e-06
1.28517e-06
1.28517e-06
1.28516e-06
1.28516e-06
1.2882e-06
1.28972e-06
1.28974e-06
1.28797e-06
1.28516e-06
1.28516e-06
1.28517e-06
1.28517e-06
1.28517e-06
1.28516e-06
1.28816e-06
1.28949e-06
1.28963e-06
1.28793e-06
1.28516e-06
1.28517e-06
1.28517e-06
1.28517e-06
1.28517e-06
1.28517e-06
1.28813e-06
1.28839e-06
1.28803e-06
1.28516e-06
1.28517e-06
1.28517e-06
1.28516e-06
1.28516e-06
1.28516e-06
1.28819e-06
1.28967e-06
1.28945e-06
1.28768e-06
1.28517e-06
1.28516e-06
1.28516e-06
1.28516e-06
1.28781e-06
1.28827e-06
1.28973e-06
1.28962e-06
1.28828e-06
1.2882e-06
1.28816e-06
1.28813e-06
1.28819e-06
1.28827e-06
1.28953e-06
1.28972e-06
1.28949e-06
1.28839e-06
1.28967e-06
1.28973e-06
1.27492e-06
1.2748e-06
1.27469e-06
1.27323e-06
1.27315e-06
1.2731e-06
1.2732e-06
1.27462e-06
1.27479e-06
1.27469e-06
1.27277e-06
1.27034e-06
1.27034e-06
1.27034e-06
1.27034e-06
1.27285e-06
1.27346e-06
1.27323e-06
1.27034e-06
1.27034e-06
1.27034e-06
1.27034e-06
1.27034e-06
1.27034e-06
1.27337e-06
1.27489e-06
1.27491e-06
1.27314e-06
1.27034e-06
1.27034e-06
1.27034e-06
1.27034e-06
1.27034e-06
1.27034e-06
1.27333e-06
1.27467e-06
1.2748e-06
1.2731e-06
1.27034e-06
1.27034e-06
1.27034e-06
1.27034e-06
1.27034e-06
1.27034e-06
1.27331e-06
1.27357e-06
1.2732e-06
1.27034e-06
1.27034e-06
1.27034e-06
1.27034e-06
1.27034e-06
1.27034e-06
1.27336e-06
1.27484e-06
1.27462e-06
1.27285e-06
1.27034e-06
1.27034e-06
1.27034e-06
1.27034e-06
1.27298e-06
1.27344e-06
1.27491e-06
1.27479e-06
1.27346e-06
1.27337e-06
1.27333e-06
1.27331e-06
1.27336e-06
1.27344e-06
1.27471e-06
1.27489e-06
1.27467e-06
1.27357e-06
1.27484e-06
1.27491e-06
1.26009e-06
1.25998e-06
1.25987e-06
1.25841e-06
1.25832e-06
1.25828e-06
1.25838e-06
1.2598e-06
1.25997e-06
1.25986e-06
1.25794e-06
1.25552e-06
1.25551e-06
1.25551e-06
1.25551e-06
1.25803e-06
1.25863e-06
1.25841e-06
1.25551e-06
1.25552e-06
1.25551e-06
1.25551e-06
1.25551e-06
1.25551e-06
1.25855e-06
1.26007e-06
1.26009e-06
1.25832e-06
1.25551e-06
1.25551e-06
1.25551e-06
1.25552e-06
1.25551e-06
1.25551e-06
1.25851e-06
1.25984e-06
1.25998e-06
1.25828e-06
1.25551e-06
1.25551e-06
1.25551e-06
1.25551e-06
1.25551e-06
1.25552e-06
1.25848e-06
1.25874e-06
1.25838e-06
1.25551e-06
1.25551e-06
1.25551e-06
1.25551e-06
1.25551e-06
1.25552e-06
1.25854e-06
1.26002e-06
1.2598e-06
1.25803e-06
1.25551e-06
1.25551e-06
1.25551e-06
1.25551e-06
1.25816e-06
1.25862e-06
1.26008e-06
1.25997e-06
1.25863e-06
1.25855e-06
1.25851e-06
1.25848e-06
1.25853e-06
1.25862e-06
1.25988e-06
1.26006e-06
1.25984e-06
1.25874e-06
1.26002e-06
1.26008e-06
1.24527e-06
1.24515e-06
1.24504e-06
1.24358e-06
1.24349e-06
1.24345e-06
1.24355e-06
1.24497e-06
1.24514e-06
1.24504e-06
1.24312e-06
1.24069e-06
1.24069e-06
1.24069e-06
1.24069e-06
1.2432e-06
1.24381e-06
1.24358e-06
1.24069e-06
1.24069e-06
1.24069e-06
1.24069e-06
1.24069e-06
1.24069e-06
1.24372e-06
1.24524e-06
1.24527e-06
1.2435e-06
1.24069e-06
1.24069e-06
1.24069e-06
1.24069e-06
1.24069e-06
1.24069e-06
1.24368e-06
1.24502e-06
1.24515e-06
1.24345e-06
1.24069e-06
1.24069e-06
1.24069e-06
1.24069e-06
1.24069e-06
1.24069e-06
1.24366e-06
1.24392e-06
1.24355e-06
1.24069e-06
1.24069e-06
1.24069e-06
1.24069e-06
1.24069e-06
1.24069e-06
1.24371e-06
1.24519e-06
1.24497e-06
1.2432e-06
1.24069e-06
1.24069e-06
1.24069e-06
1.24069e-06
1.24333e-06
1.24379e-06
1.24526e-06
1.24514e-06
1.24381e-06
1.24372e-06
1.24368e-06
1.24366e-06
1.24371e-06
1.24379e-06
1.24506e-06
1.24524e-06
1.24502e-06
1.24392e-06
1.24519e-06
1.24526e-06
1.23044e-06
1.23033e-06
1.23021e-06
1.22876e-06
1.22867e-06
1.22863e-06
1.22873e-06
1.23015e-06
1.23032e-06
1.23021e-06
1.22829e-06
1.22586e-06
1.22586e-06
1.22587e-06
1.22586e-06
1.22838e-06
1.22898e-06
1.22876e-06
1.22586e-06
1.22586e-06
1.22586e-06
1.22587e-06
1.22586e-06
1.22586e-06
1.2289e-06
1.23041e-06
1.23044e-06
1.22867e-06
1.22586e-06
1.22586e-06
1.22586e-06
1.22586e-06
1.22586e-06
1.22586e-06
1.22886e-06
1.23019e-06
1.23033e-06
1.22863e-06
1.22586e-06
1.22586e-06
1.22586e-06
1.22586e-06
1.22587e-06
1.22587e-06
1.22883e-06
1.22909e-06
1.22873e-06
1.22586e-06
1.22586e-06
1.22586e-06
1.22586e-06
1.22586e-06
1.22586e-06
1.22888e-06
1.23037e-06
1.23015e-06
1.22838e-06
1.22586e-06
1.22587e-06
1.22586e-06
1.22586e-06
1.22851e-06
1.22897e-06
1.23043e-06
1.23032e-06
1.22898e-06
1.2289e-06
1.22886e-06
1.22883e-06
1.22888e-06
1.22897e-06
1.23023e-06
1.23041e-06
1.23019e-06
1.22909e-06
1.23037e-06
1.23043e-06
1.21561e-06
1.2155e-06
1.21539e-06
1.21393e-06
1.21384e-06
1.2138e-06
1.2139e-06
1.21532e-06
1.21549e-06
1.21539e-06
1.21346e-06
1.21104e-06
1.21104e-06
1.21104e-06
1.21104e-06
1.21355e-06
1.21416e-06
1.21393e-06
1.21104e-06
1.21104e-06
1.21104e-06
1.21103e-06
1.21104e-06
1.21104e-06
1.21407e-06
1.21559e-06
1.21562e-06
1.21384e-06
1.21104e-06
1.21104e-06
1.21104e-06
1.21104e-06
1.21104e-06
1.21104e-06
1.21403e-06
1.21536e-06
1.2155e-06
1.2138e-06
1.21104e-06
1.21104e-06
1.21104e-06
1.21104e-06
1.21104e-06
1.21104e-06
1.21401e-06
1.21427e-06
1.2139e-06
1.21104e-06
1.21104e-06
1.21104e-06
1.21104e-06
1.21104e-06
1.21104e-06
1.21406e-06
1.21554e-06
1.21532e-06
1.21355e-06
1.21104e-06
1.21104e-06
1.21104e-06
1.21104e-06
1.21368e-06
1.21414e-06
1.21561e-06
1.21549e-06
1.21416e-06
1.21407e-06
1.21403e-06
1.21401e-06
1.21406e-06
1.21414e-06
1.2154e-06
1.21559e-06
1.21536e-06
1.21427e-06
1.21554e-06
1.21561e-06
1.20079e-06
1.20068e-06
1.20056e-06
1.19911e-06
1.19902e-06
1.19897e-06
1.19908e-06
1.2005e-06
1.20067e-06
1.20056e-06
1.19864e-06
1.19621e-06
1.19621e-06
1.19621e-06
1.19621e-06
1.19873e-06
1.19933e-06
1.19911e-06
1.19621e-06
1.19621e-06
1.19621e-06
1.19621e-06
1.19621e-06
1.19621e-06
1.19925e-06
1.20076e-06
1.20079e-06
1.19902e-06
1.19621e-06
1.19621e-06
1.19621e-06
1.19621e-06
1.19621e-06
1.19621e-06
1.19921e-06
1.20054e-06
1.20068e-06
1.19897e-06
1.19621e-06
1.19621e-06
1.19621e-06
1.19621e-06
1.19621e-06
1.19621e-06
1.19918e-06
1.19944e-06
1.19907e-06
1.19621e-06
1.19621e-06
1.19621e-06
1.19621e-06
1.19621e-06
1.19621e-06
1.19923e-06
1.20072e-06
1.20049e-06
1.19872e-06
1.19621e-06
1.19621e-06
1.19621e-06
1.19621e-06
1.19886e-06
1.19932e-06
1.20078e-06
1.20067e-06
1.19933e-06
1.19925e-06
1.19921e-06
1.19918e-06
1.19923e-06
1.19932e-06
1.20058e-06
1.20076e-06
1.20054e-06
1.19944e-06
1.20072e-06
1.20078e-06
1.18596e-06
1.18585e-06
1.18574e-06
1.18428e-06
1.18419e-06
1.18415e-06
1.18425e-06
1.18567e-06
1.18584e-06
1.18574e-06
1.18381e-06
1.18139e-06
1.18139e-06
1.18139e-06
1.18139e-06
1.1839e-06
1.1845e-06
1.18428e-06
1.18139e-06
1.18139e-06
1.18139e-06
1.18139e-06
1.18139e-06
1.18139e-06
1.18442e-06
1.18594e-06
1.18596e-06
1.18419e-06
1.18139e-06
1.18139e-06
1.18139e-06
1.18139e-06
1.18139e-06
1.18139e-06
1.18438e-06
1.18571e-06
1.18585e-06
1.18415e-06
1.18139e-06
1.18139e-06
1.18139e-06
1.18139e-06
1.18139e-06
1.18139e-06
1.18435e-06
1.18461e-06
1.18425e-06
1.18139e-06
1.18139e-06
1.18139e-06
1.18139e-06
1.18139e-06
1.18139e-06
1.18441e-06
1.18589e-06
1.18567e-06
1.1839e-06
1.18139e-06
1.18138e-06
1.18138e-06
1.18138e-06
1.18403e-06
1.18449e-06
1.18595e-06
1.18584e-06
1.1845e-06
1.18442e-06
1.18438e-06
1.18435e-06
1.18441e-06
1.18449e-06
1.18575e-06
1.18594e-06
1.18571e-06
1.18461e-06
1.18589e-06
1.18595e-06
1.17114e-06
1.17102e-06
1.17091e-06
1.16945e-06
1.16937e-06
1.16932e-06
1.16942e-06
1.17084e-06
1.17101e-06
1.17091e-06
1.16899e-06
1.16656e-06
1.16656e-06
1.16656e-06
1.16656e-06
1.16907e-06
1.16968e-06
1.16945e-06
1.16656e-06
1.16656e-06
1.16656e-06
1.16656e-06
1.16656e-06
1.16656e-06
1.1696e-06
1.17111e-06
1.17114e-06
1.16937e-06
1.16656e-06
1.16656e-06
1.16656e-06
1.16656e-06
1.16656e-06
1.16656e-06
1.16956e-06
1.17089e-06
1.17102e-06
1.16932e-06
1.16656e-06
1.16656e-06
1.16656e-06
1.16656e-06
1.16656e-06
1.16656e-06
1.16953e-06
1.16979e-06
1.16942e-06
1.16656e-06
1.16656e-06
1.16656e-06
1.16656e-06
1.16656e-06
1.16656e-06
1.16958e-06
1.17106e-06
1.17084e-06
1.16907e-06
1.16656e-06
1.16656e-06
1.16656e-06
1.16656e-06
1.16921e-06
1.16966e-06
1.17113e-06
1.17101e-06
1.16968e-06
1.1696e-06
1.16956e-06
1.16953e-06
1.16958e-06
1.16967e-06
1.17093e-06
1.17111e-06
1.17089e-06
1.16979e-06
1.17106e-06
1.17113e-06
1.15631e-06
1.1562e-06
1.15609e-06
1.15463e-06
1.15454e-06
1.1545e-06
1.1546e-06
1.15602e-06
1.15619e-06
1.15608e-06
1.15416e-06
1.15174e-06
1.15173e-06
1.15173e-06
1.15173e-06
1.15425e-06
1.15485e-06
1.15463e-06
1.15173e-06
1.15174e-06
1.15173e-06
1.15174e-06
1.15174e-06
1.15174e-06
1.15477e-06
1.15629e-06
1.15631e-06
1.15454e-06
1.15173e-06
1.15173e-06
1.15173e-06
1.15173e-06
1.15173e-06
1.15174e-06
1.15473e-06
1.15606e-06
1.1562e-06
1.1545e-06
1.15174e-06
1.15174e-06
1.15173e-06
1.15173e-06
1.15174e-06
1.15174e-06
1.1547e-06
1.15496e-06
1.1546e-06
1.15174e-06
1.15174e-06
1.15174e-06
1.15174e-06
1.15174e-06
1.15173e-06
1.15476e-06
1.15624e-06
1.15602e-06
1.15425e-06
1.15174e-06
1.15174e-06
1.15174e-06
1.15174e-06
1.15438e-06
1.15484e-06
1.1563e-06
1.15619e-06
1.15485e-06
1.15477e-06
1.15473e-06
1.1547e-06
1.15476e-06
1.15484e-06
1.1561e-06
1.15629e-06
1.15606e-06
1.15496e-06
1.15624e-06
1.1563e-06
1.14149e-06
1.14137e-06
1.14126e-06
1.1398e-06
1.13971e-06
1.13967e-06
1.13977e-06
1.14119e-06
1.14136e-06
1.14126e-06
1.13934e-06
1.13691e-06
1.13691e-06
1.13691e-06
1.13691e-06
1.13942e-06
1.14003e-06
1.1398e-06
1.13691e-06
1.13691e-06
1.13691e-06
1.13691e-06
1.13691e-06
1.13691e-06
1.13994e-06
1.14146e-06
1.14149e-06
1.13972e-06
1.13691e-06
1.13691e-06
1.13691e-06
1.13691e-06
1.13691e-06
1.13691e-06
1.13991e-06
1.14124e-06
1.14137e-06
1.13967e-06
1.13691e-06
1.13691e-06
1.13691e-06
1.13691e-06
1.13691e-06
1.13691e-06
1.13988e-06
1.14014e-06
1.13977e-06
1.13691e-06
1.13691e-06
1.13691e-06
1.13691e-06
1.13691e-06
1.13691e-06
1.13993e-06
1.14141e-06
1.14119e-06
1.13942e-06
1.13691e-06
1.13691e-06
1.13691e-06
1.13691e-06
1.13955e-06
1.14001e-06
1.14148e-06
1.14136e-06
1.14003e-06
1.13994e-06
1.13991e-06
1.13988e-06
1.13993e-06
1.14001e-06
1.14128e-06
1.14146e-06
1.14124e-06
1.14014e-06
1.14141e-06
1.14148e-06
1.12666e-06
1.12655e-06
1.12643e-06
1.12498e-06
1.12489e-06
1.12485e-06
1.12495e-06
1.12637e-06
1.12654e-06
1.12643e-06
1.12451e-06
1.12208e-06
1.12208e-06
1.12209e-06
1.12208e-06
1.1246e-06
1.1252e-06
1.12498e-06
1.12208e-06
1.12208e-06
1.12208e-06
1.12208e-06
1.12208e-06
1.12208e-06
1.12512e-06
1.12664e-06
1.12666e-06
1.12489e-06
1.12208e-06
1.12208e-06
1.12208e-06
1.12208e-06
1.12208e-06
1.12208e-06
1.12508e-06
1.12641e-06
1.12655e-06
1.12485e-06
1.12208e-06
1.12209e-06
1.12208e-06
1.12209e-06
1.12208e-06
1.12208e-06
1.12505e-06
1.12531e-06
1.12495e-06
1.12208e-06
1.12208e-06
1.12208e-06
1.12209e-06
1.12208e-06
1.12208e-06
1.12511e-06
1.12659e-06
1.12637e-06
1.1246e-06
1.12208e-06
1.12208e-06
1.12208e-06
1.12208e-06
1.12473e-06
1.12519e-06
1.12665e-06
1.12654e-06
1.1252e-06
1.12512e-06
1.12508e-06
1.12505e-06
1.12511e-06
1.12519e-06
1.12645e-06
1.12664e-06
1.12641e-06
1.12531e-06
1.12659e-06
1.12665e-06
1.11184e-06
1.11172e-06
1.11161e-06
1.11015e-06
1.11006e-06
1.11002e-06
1.11012e-06
1.11154e-06
1.11171e-06
1.11161e-06
1.10968e-06
1.10726e-06
1.10726e-06
1.10726e-06
1.10726e-06
1.10977e-06
1.11038e-06
1.11015e-06
1.10726e-06
1.10726e-06
1.10726e-06
1.10726e-06
1.10726e-06
1.10726e-06
1.11029e-06
1.11181e-06
1.11184e-06
1.11006e-06
1.10726e-06
1.10726e-06
1.10726e-06
1.10726e-06
1.10726e-06
1.10726e-06
1.11025e-06
1.11159e-06
1.11172e-06
1.11002e-06
1.10726e-06
1.10726e-06
1.10726e-06
1.10726e-06
1.10726e-06
1.10726e-06
1.11023e-06
1.11049e-06
1.11012e-06
1.10726e-06
1.10726e-06
1.10726e-06
1.10726e-06
1.10726e-06
1.10726e-06
1.11028e-06
1.11176e-06
1.11154e-06
1.10977e-06
1.10726e-06
1.10726e-06
1.10726e-06
1.10726e-06
1.1099e-06
1.11036e-06
1.11183e-06
1.11171e-06
1.11038e-06
1.11029e-06
1.11025e-06
1.11023e-06
1.11028e-06
1.11036e-06
1.11163e-06
1.11181e-06
1.11158e-06
1.11049e-06
1.11176e-06
1.11183e-06
1.09701e-06
1.0969e-06
1.09678e-06
1.09533e-06
1.09524e-06
1.0952e-06
1.0953e-06
1.09672e-06
1.09689e-06
1.09678e-06
1.09486e-06
1.09243e-06
1.09243e-06
1.09244e-06
1.09243e-06
1.09495e-06
1.09555e-06
1.09533e-06
1.09243e-06
1.09244e-06
1.09244e-06
1.09243e-06
1.09243e-06
1.09243e-06
1.09547e-06
1.09698e-06
1.09701e-06
1.09524e-06
1.09243e-06
1.09243e-06
1.09244e-06
1.09244e-06
1.09244e-06
1.09243e-06
1.09543e-06
1.09676e-06
1.0969e-06
1.0952e-06
1.09243e-06
1.09243e-06
1.09244e-06
1.09243e-06
1.09243e-06
1.09243e-06
1.0954e-06
1.09566e-06
1.0953e-06
1.09243e-06
1.09244e-06
1.09243e-06
1.09243e-06
1.09243e-06
1.09243e-06
1.09545e-06
1.09694e-06
1.09672e-06
1.09495e-06
1.09243e-06
1.09243e-06
1.09243e-06
1.09243e-06
1.09508e-06
1.09554e-06
1.097e-06
1.09689e-06
1.09555e-06
1.09547e-06
1.09543e-06
1.0954e-06
1.09545e-06
1.09554e-06
1.0968e-06
1.09698e-06
1.09676e-06
1.09566e-06
1.09694e-06
1.097e-06
1.08218e-06
1.08207e-06
1.08196e-06
1.0805e-06
1.08041e-06
1.08037e-06
1.08047e-06
1.08189e-06
1.08206e-06
1.08196e-06
1.08003e-06
1.07761e-06
1.07761e-06
1.07761e-06
1.07761e-06
1.08012e-06
1.08072e-06
1.0805e-06
1.07761e-06
1.07761e-06
1.07761e-06
1.07761e-06
1.07761e-06
1.07761e-06
1.08064e-06
1.08216e-06
1.08218e-06
1.08041e-06
1.07761e-06
1.07761e-06
1.0776e-06
1.0776e-06
1.0776e-06
1.07761e-06
1.0806e-06
1.08193e-06
1.08207e-06
1.08037e-06
1.07761e-06
1.07761e-06
1.07761e-06
1.07761e-06
1.07761e-06
1.07761e-06
1.08057e-06
1.08083e-06
1.08047e-06
1.07761e-06
1.07761e-06
1.07761e-06
1.07761e-06
1.07761e-06
1.07761e-06
1.08063e-06
1.08211e-06
1.08189e-06
1.08012e-06
1.07761e-06
1.07761e-06
1.0776e-06
1.07761e-06
1.08025e-06
1.08071e-06
1.08218e-06
1.08206e-06
1.08072e-06
1.08064e-06
1.0806e-06
1.08057e-06
1.08063e-06
1.08071e-06
1.08197e-06
1.08216e-06
1.08193e-06
1.08083e-06
1.08211e-06
1.08217e-06
1.06736e-06
1.06725e-06
1.06713e-06
1.06568e-06
1.06559e-06
1.06555e-06
1.06565e-06
1.06707e-06
1.06724e-06
1.06713e-06
1.06521e-06
1.06278e-06
1.06278e-06
1.06278e-06
1.06278e-06
1.0653e-06
1.0659e-06
1.06568e-06
1.06278e-06
1.06278e-06
1.06278e-06
1.06278e-06
1.06278e-06
1.06278e-06
1.06582e-06
1.06733e-06
1.06736e-06
1.06559e-06
1.06278e-06
1.06278e-06
1.06279e-06
1.06278e-06
1.06278e-06
1.06278e-06
1.06578e-06
1.06711e-06
1.06725e-06
1.06554e-06
1.06278e-06
1.06278e-06
1.06278e-06
1.06278e-06
1.06278e-06
1.06278e-06
1.06575e-06
1.06601e-06
1.06565e-06
1.06278e-06
1.06278e-06
1.06278e-06
1.06278e-06
1.06278e-06
1.06278e-06
1.0658e-06
1.06729e-06
1.06707e-06
1.0653e-06
1.06278e-06
1.06278e-06
1.06278e-06
1.06278e-06
1.06543e-06
1.06589e-06
1.06735e-06
1.06724e-06
1.0659e-06
1.06582e-06
1.06578e-06
1.06575e-06
1.0658e-06
1.06589e-06
1.06715e-06
1.06733e-06
1.06711e-06
1.06601e-06
1.06729e-06
1.06735e-06
1.05253e-06
1.05242e-06
1.05231e-06
1.05085e-06
1.05076e-06
1.05072e-06
1.05082e-06
1.05224e-06
1.05241e-06
1.05231e-06
1.05038e-06
1.04796e-06
1.04795e-06
1.04796e-06
1.04796e-06
1.05047e-06
1.05107e-06
1.05085e-06
1.04796e-06
1.04796e-06
1.04795e-06
1.04796e-06
1.04796e-06
1.04796e-06
1.05099e-06
1.05251e-06
1.05253e-06
1.05076e-06
1.04796e-06
1.04796e-06
1.04796e-06
1.04796e-06
1.04795e-06
1.04795e-06
1.05095e-06
1.05228e-06
1.05242e-06
1.05072e-06
1.04796e-06
1.04796e-06
1.04796e-06
1.04795e-06
1.04796e-06
1.04796e-06
1.05092e-06
1.05118e-06
1.05082e-06
1.04796e-06
1.04796e-06
1.04796e-06
1.04796e-06
1.04796e-06
1.04796e-06
1.05098e-06
1.05246e-06
1.05224e-06
1.05047e-06
1.04796e-06
1.04796e-06
1.04796e-06
1.04796e-06
1.0506e-06
1.05106e-06
1.05252e-06
1.05241e-06
1.05107e-06
1.05099e-06
1.05095e-06
1.05092e-06
1.05098e-06
1.05106e-06
1.05232e-06
1.05251e-06
1.05228e-06
1.05119e-06
1.05246e-06
1.05252e-06
1.03771e-06
1.03759e-06
1.03748e-06
1.03603e-06
1.03594e-06
1.03589e-06
1.03599e-06
1.03741e-06
1.03759e-06
1.03748e-06
1.03556e-06
1.03313e-06
1.03313e-06
1.03313e-06
1.03313e-06
1.03564e-06
1.03625e-06
1.03603e-06
1.03313e-06
1.03313e-06
1.03313e-06
1.03313e-06
1.03313e-06
1.03313e-06
1.03617e-06
1.03768e-06
1.03771e-06
1.03594e-06
1.03313e-06
1.03313e-06
1.03313e-06
1.03313e-06
1.03313e-06
1.03313e-06
1.03613e-06
1.03746e-06
1.03759e-06
1.03589e-06
1.03313e-06
1.03313e-06
1.03313e-06
1.03313e-06
1.03313e-06
1.03313e-06
1.0361e-06
1.03636e-06
1.03599e-06
1.03313e-06
1.03313e-06
1.03313e-06
1.03313e-06
1.03313e-06
1.03313e-06
1.03615e-06
1.03763e-06
1.03741e-06
1.03564e-06
1.03313e-06
1.03313e-06
1.03313e-06
1.03313e-06
1.03578e-06
1.03624e-06
1.0377e-06
1.03759e-06
1.03625e-06
1.03617e-06
1.03613e-06
1.0361e-06
1.03615e-06
1.03624e-06
1.0375e-06
1.03768e-06
1.03746e-06
1.03636e-06
1.03763e-06
1.0377e-06
1.02288e-06
1.02277e-06
1.02266e-06
1.0212e-06
1.02111e-06
1.02107e-06
1.02117e-06
1.02259e-06
1.02276e-06
1.02266e-06
1.02073e-06
1.01831e-06
1.0183e-06
1.01831e-06
1.01831e-06
1.02082e-06
1.02142e-06
1.0212e-06
1.01831e-06
1.01831e-06
1.01831e-06
1.01831e-06
1.01831e-06
1.01831e-06
1.02134e-06
1.02286e-06
1.02288e-06
1.02111e-06
1.01831e-06
1.01831e-06
1.01831e-06
1.01831e-06
1.01831e-06
1.01831e-06
1.0213e-06
1.02263e-06
1.02277e-06
1.02107e-06
1.01831e-06
1.01831e-06
1.01831e-06
1.01831e-06
1.01831e-06
1.01831e-06
1.02127e-06
1.02153e-06
1.02117e-06
1.01831e-06
1.01831e-06
1.01831e-06
1.01831e-06
1.01831e-06
1.01831e-06
1.02133e-06
1.02281e-06
1.02259e-06
1.02082e-06
1.01831e-06
1.0183e-06
1.0183e-06
1.0183e-06
1.02095e-06
1.02141e-06
1.02287e-06
1.02276e-06
1.02142e-06
1.02134e-06
1.0213e-06
1.02127e-06
1.02133e-06
1.02141e-06
1.02267e-06
1.02286e-06
1.02263e-06
1.02153e-06
1.02281e-06
1.02287e-06
1.00806e-06
1.00794e-06
1.00783e-06
1.00637e-06
1.00629e-06
1.00624e-06
1.00634e-06
1.00776e-06
1.00793e-06
1.00783e-06
1.00591e-06
1.00348e-06
1.00348e-06
1.00348e-06
1.00348e-06
1.00599e-06
1.0066e-06
1.00637e-06
1.00348e-06
1.00348e-06
1.00348e-06
1.00348e-06
1.00348e-06
1.00348e-06
1.00652e-06
1.00803e-06
1.00806e-06
1.00629e-06
1.00348e-06
1.00348e-06
1.00348e-06
1.00348e-06
1.00348e-06
1.00348e-06
1.00648e-06
1.00781e-06
1.00794e-06
1.00624e-06
1.00348e-06
1.00348e-06
1.00348e-06
1.00348e-06
1.00348e-06
1.00348e-06
1.00645e-06
1.00671e-06
1.00634e-06
1.00348e-06
1.00348e-06
1.00348e-06
1.00348e-06
1.00348e-06
1.00348e-06
1.0065e-06
1.00798e-06
1.00776e-06
1.00599e-06
1.00348e-06
1.00348e-06
1.00348e-06
1.00348e-06
1.00613e-06
1.00658e-06
1.00805e-06
1.00793e-06
1.0066e-06
1.00652e-06
1.00648e-06
1.00645e-06
1.0065e-06
1.00658e-06
1.00785e-06
1.00803e-06
1.00781e-06
1.00671e-06
1.00798e-06
1.00805e-06
9.93231e-07
9.93119e-07
9.93005e-07
9.91549e-07
9.9146e-07
9.91418e-07
9.91519e-07
9.92938e-07
9.9311e-07
9.93005e-07
9.91081e-07
9.88654e-07
9.88656e-07
9.88655e-07
9.88656e-07
9.91169e-07
9.91773e-07
9.91549e-07
9.88655e-07
9.88654e-07
9.88656e-07
9.88657e-07
9.88656e-07
9.88655e-07
9.9169e-07
9.93206e-07
9.93229e-07
9.91461e-07
9.88656e-07
9.88653e-07
9.88656e-07
9.88658e-07
9.88658e-07
9.88656e-07
9.91651e-07
9.92981e-07
9.93115e-07
9.91419e-07
9.88656e-07
9.88654e-07
9.88654e-07
9.88652e-07
9.88651e-07
9.88653e-07
9.91622e-07
9.91882e-07
9.91518e-07
9.88656e-07
9.88653e-07
9.88654e-07
9.88654e-07
9.88653e-07
9.88655e-07
9.91675e-07
9.93158e-07
9.92938e-07
9.91168e-07
9.88653e-07
9.88654e-07
9.88654e-07
9.88655e-07
9.913e-07
9.91759e-07
9.93223e-07
9.93109e-07
9.91772e-07
9.91689e-07
9.9165e-07
9.91621e-07
9.91675e-07
9.91759e-07
9.93021e-07
9.93205e-07
9.92981e-07
9.91881e-07
9.93158e-07
9.93222e-07
9.78407e-07
9.78294e-07
9.78181e-07
9.76725e-07
9.76636e-07
9.76593e-07
9.76693e-07
9.78113e-07
9.78284e-07
9.7818e-07
9.76257e-07
9.73831e-07
9.7383e-07
9.73831e-07
9.7383e-07
9.76343e-07
9.76948e-07
9.76724e-07
9.7383e-07
9.73829e-07
9.73829e-07
9.7383e-07
9.7383e-07
9.7383e-07
9.76865e-07
9.78381e-07
9.78406e-07
9.76635e-07
9.73829e-07
9.73829e-07
9.73829e-07
9.73827e-07
9.73827e-07
9.7383e-07
9.76825e-07
9.78156e-07
9.78292e-07
9.76592e-07
9.73829e-07
9.73828e-07
9.73831e-07
9.73828e-07
9.7383e-07
9.73829e-07
9.76797e-07
9.77056e-07
9.76693e-07
9.73828e-07
9.73829e-07
9.73831e-07
9.73826e-07
9.73832e-07
9.73829e-07
9.7685e-07
9.78333e-07
9.78112e-07
9.76342e-07
9.73828e-07
9.73833e-07
9.73826e-07
9.73828e-07
9.76475e-07
9.76933e-07
9.78397e-07
9.78283e-07
9.76947e-07
9.76864e-07
9.76825e-07
9.76796e-07
9.7685e-07
9.76933e-07
9.78196e-07
9.7838e-07
9.78156e-07
9.77056e-07
9.78332e-07
9.78397e-07
9.63581e-07
9.63468e-07
9.63355e-07
9.61899e-07
9.6181e-07
9.61768e-07
9.61868e-07
9.63288e-07
9.63459e-07
9.63355e-07
9.61431e-07
9.59005e-07
9.59004e-07
9.59005e-07
9.59005e-07
9.61518e-07
9.62122e-07
9.61899e-07
9.59006e-07
9.59009e-07
9.59008e-07
9.59005e-07
9.59005e-07
9.59004e-07
9.62039e-07
9.63555e-07
9.6358e-07
9.61809e-07
9.59003e-07
9.59001e-07
9.59003e-07
9.59006e-07
9.59005e-07
9.59005e-07
9.62e-07
9.63331e-07
9.63467e-07
9.61766e-07
9.59002e-07
9.59004e-07
9.59004e-07
9.59005e-07
9.59005e-07
9.59005e-07
9.61972e-07
9.62231e-07
9.61867e-07
9.59003e-07
9.59003e-07
9.59003e-07
9.59007e-07
9.59002e-07
9.59002e-07
9.62025e-07
9.63507e-07
9.63286e-07
9.61516e-07
9.59002e-07
9.59e-07
9.59007e-07
9.59004e-07
9.61649e-07
9.62108e-07
9.63572e-07
9.63457e-07
9.62121e-07
9.62038e-07
9.61999e-07
9.61971e-07
9.62025e-07
9.62108e-07
9.6337e-07
9.63554e-07
9.6333e-07
9.6223e-07
9.63507e-07
9.63571e-07
9.48755e-07
9.48642e-07
9.48529e-07
9.47073e-07
9.46984e-07
9.46941e-07
9.47042e-07
9.48462e-07
9.48633e-07
9.48529e-07
9.46605e-07
9.4418e-07
9.4418e-07
9.4418e-07
9.44179e-07
9.46692e-07
9.47296e-07
9.47072e-07
9.44177e-07
9.44181e-07
9.44179e-07
9.44179e-07
9.44178e-07
9.44179e-07
9.47214e-07
9.4873e-07
9.48755e-07
9.46983e-07
9.44178e-07
9.44181e-07
9.44179e-07
9.44179e-07
9.44179e-07
9.4418e-07
9.47174e-07
9.48505e-07
9.48641e-07
9.46941e-07
9.44179e-07
9.44177e-07
9.44178e-07
9.44179e-07
9.44179e-07
9.44179e-07
9.47146e-07
9.47405e-07
9.47041e-07
9.44179e-07
9.44178e-07
9.44178e-07
9.44179e-07
9.44182e-07
9.44179e-07
9.47199e-07
9.48682e-07
9.48461e-07
9.46691e-07
9.44177e-07
9.4418e-07
9.44179e-07
9.44177e-07