/*--------------------------------*- C++ -*----------------------------------*\
| =========                 |                                                 |
| \\      /  F ield         | OpenFOAM: The Open Source CFD Toolbox           |
|  \\    /   O peration     | Version:  v2012                                 |
|   \\  /    A nd           | Website:  www.openfoam.com                      |
|    \\/     M anipulation  |                                                 |
\*---------------------------------------------------------------------------*/
FoamFile
{
    version     2.0;
    format      ascii;
    class       volScalarField;
    location    "20";
    object      p;
}
// * * * * * * * * * * * * * * * * * * * * * * * * * * * * * * * * * * * * * //

dimensions      [0 2 -2 0 0 0 0];


internalField   nonuniform List<scalar> 
244288
(
1.40022e-06
1.40026e-06
1.40024e-06
1.40017e-06
1.40013e-06
1.40018e-06
1.40024e-06
1.40026e-06
1.40029e-06
1.40008e-06
1.39985e-06
1.39976e-06
1.39987e-06
1.40011e-06
1.4003e-06
1.40024e-06
1.40008e-06
1.39969e-06
1.39937e-06
1.39927e-06
1.3994e-06
1.39974e-06
1.40012e-06
1.40023e-06
1.40017e-06
1.39985e-06
1.39937e-06
1.39901e-06
1.39889e-06
1.39905e-06
1.39943e-06
1.3999e-06
1.40018e-06
1.40022e-06
1.40013e-06
1.39976e-06
1.39927e-06
1.39889e-06
1.39877e-06
1.39893e-06
1.39932e-06
1.39982e-06
1.40015e-06
1.40018e-06
1.39987e-06
1.3994e-06
1.39905e-06
1.39893e-06
1.39908e-06
1.39946e-06
1.39992e-06
1.40019e-06
1.40024e-06
1.40011e-06
1.39974e-06
1.39943e-06
1.39932e-06
1.39946e-06
1.39979e-06
1.40015e-06
1.40023e-06
1.4003e-06
1.40012e-06
1.3999e-06
1.39982e-06
1.39992e-06
1.40015e-06
1.4003e-06
1.40023e-06
1.40018e-06
1.40015e-06
1.40019e-06
1.40023e-06
1.37972e-06
1.37942e-06
1.37928e-06
1.37793e-06
1.37782e-06
1.37781e-06
1.37785e-06
1.37923e-06
1.37934e-06
1.37928e-06
1.37744e-06
1.3752e-06
1.3752e-06
1.3752e-06
1.3752e-06
1.37755e-06
1.37806e-06
1.37793e-06
1.3752e-06
1.37517e-06
1.37521e-06
1.37521e-06
1.37517e-06
1.3752e-06
1.37803e-06
1.37948e-06
1.37972e-06
1.37782e-06
1.3752e-06
1.37521e-06
1.37526e-06
1.37526e-06
1.37521e-06
1.3752e-06
1.37799e-06
1.37926e-06
1.37942e-06
1.37781e-06
1.3752e-06
1.37521e-06
1.37526e-06
1.37526e-06
1.37521e-06
1.3752e-06
1.37796e-06
1.37818e-06
1.37785e-06
1.3752e-06
1.37517e-06
1.37521e-06
1.37521e-06
1.37517e-06
1.3752e-06
1.37801e-06
1.37941e-06
1.37923e-06
1.37755e-06
1.3752e-06
1.3752e-06
1.3752e-06
1.3752e-06
1.37763e-06
1.37808e-06
1.37949e-06
1.37934e-06
1.37806e-06
1.37803e-06
1.37799e-06
1.37796e-06
1.37801e-06
1.37808e-06
1.37923e-06
1.37948e-06
1.37926e-06
1.37818e-06
1.37941e-06
1.37949e-06
1.36499e-06
1.36488e-06
1.36478e-06
1.36335e-06
1.36326e-06
1.36322e-06
1.36332e-06
1.36471e-06
1.36488e-06
1.36478e-06
1.36289e-06
1.3605e-06
1.3605e-06
1.3605e-06
1.3605e-06
1.36299e-06
1.36357e-06
1.36335e-06
1.3605e-06
1.36048e-06
1.36049e-06
1.36049e-06
1.36048e-06
1.3605e-06
1.36349e-06
1.36498e-06
1.36499e-06
1.36326e-06
1.3605e-06
1.36049e-06
1.3605e-06
1.3605e-06
1.36049e-06
1.3605e-06
1.36345e-06
1.36475e-06
1.36488e-06
1.36322e-06
1.3605e-06
1.36049e-06
1.3605e-06
1.3605e-06
1.36049e-06
1.3605e-06
1.36342e-06
1.36366e-06
1.36332e-06
1.3605e-06
1.36048e-06
1.36049e-06
1.36049e-06
1.36048e-06
1.3605e-06
1.36347e-06
1.36493e-06
1.36471e-06
1.36299e-06
1.3605e-06
1.3605e-06
1.3605e-06
1.3605e-06
1.36309e-06
1.36355e-06
1.36499e-06
1.36488e-06
1.36357e-06
1.36349e-06
1.36345e-06
1.36342e-06
1.36347e-06
1.36355e-06
1.3648e-06
1.36498e-06
1.36475e-06
1.36366e-06
1.36492e-06
1.36499e-06
1.35033e-06
1.35022e-06
1.3501e-06
1.34867e-06
1.34858e-06
1.34854e-06
1.34864e-06
1.35004e-06
1.35021e-06
1.3501e-06
1.3482e-06
1.34581e-06
1.34581e-06
1.34581e-06
1.34581e-06
1.3483e-06
1.34889e-06
1.34867e-06
1.34581e-06
1.34581e-06
1.34581e-06
1.34581e-06
1.34581e-06
1.34581e-06
1.34882e-06
1.35031e-06
1.35033e-06
1.34858e-06
1.34581e-06
1.34581e-06
1.34581e-06
1.34581e-06
1.34581e-06
1.34581e-06
1.34878e-06
1.35008e-06
1.35022e-06
1.34854e-06
1.34581e-06
1.34581e-06
1.34581e-06
1.34581e-06
1.34581e-06
1.34581e-06
1.34875e-06
1.349e-06
1.34864e-06
1.34581e-06
1.34581e-06
1.34581e-06
1.34581e-06
1.34581e-06
1.34581e-06
1.3488e-06
1.35026e-06
1.35004e-06
1.3483e-06
1.34581e-06
1.34581e-06
1.34581e-06
1.34581e-06
1.34843e-06
1.34888e-06
1.35032e-06
1.35021e-06
1.34889e-06
1.34882e-06
1.34878e-06
1.34875e-06
1.3488e-06
1.34888e-06
1.35013e-06
1.35031e-06
1.35008e-06
1.349e-06
1.35026e-06
1.35032e-06
1.33565e-06
1.33554e-06
1.33542e-06
1.33399e-06
1.3339e-06
1.33386e-06
1.33396e-06
1.33536e-06
1.33553e-06
1.33542e-06
1.33352e-06
1.33113e-06
1.33113e-06
1.33113e-06
1.33113e-06
1.33361e-06
1.33421e-06
1.33399e-06
1.33113e-06
1.33113e-06
1.33113e-06
1.33113e-06
1.33113e-06
1.33113e-06
1.33413e-06
1.33563e-06
1.33565e-06
1.3339e-06
1.33113e-06
1.33113e-06
1.33113e-06
1.33113e-06
1.33113e-06
1.33113e-06
1.3341e-06
1.33541e-06
1.33554e-06
1.33386e-06
1.33113e-06
1.33113e-06
1.33113e-06
1.33113e-06
1.33113e-06
1.33113e-06
1.33407e-06
1.33432e-06
1.33396e-06
1.33113e-06
1.33113e-06
1.33113e-06
1.33113e-06
1.33113e-06
1.33113e-06
1.33412e-06
1.33558e-06
1.33536e-06
1.33361e-06
1.33113e-06
1.33113e-06
1.33113e-06
1.33113e-06
1.33375e-06
1.3342e-06
1.33564e-06
1.33553e-06
1.33421e-06
1.33413e-06
1.3341e-06
1.33407e-06
1.33412e-06
1.3342e-06
1.33545e-06
1.33563e-06
1.33541e-06
1.33432e-06
1.33558e-06
1.33564e-06
1.32097e-06
1.32086e-06
1.32074e-06
1.3193e-06
1.31922e-06
1.31917e-06
1.31927e-06
1.32068e-06
1.32085e-06
1.32074e-06
1.31884e-06
1.31644e-06
1.31644e-06
1.31644e-06
1.31644e-06
1.31893e-06
1.31953e-06
1.3193e-06
1.31644e-06
1.31644e-06
1.31644e-06
1.31644e-06
1.31644e-06
1.31644e-06
1.31945e-06
1.32095e-06
1.32097e-06
1.31921e-06
1.31644e-06
1.31644e-06
1.31644e-06
1.31645e-06
1.31644e-06
1.31644e-06
1.31941e-06
1.32072e-06
1.32086e-06
1.31917e-06
1.31644e-06
1.31644e-06
1.31644e-06
1.31644e-06
1.31644e-06
1.31644e-06
1.31939e-06
1.31964e-06
1.31927e-06
1.31644e-06
1.31644e-06
1.31644e-06
1.31644e-06
1.31644e-06
1.31644e-06
1.31944e-06
1.3209e-06
1.32068e-06
1.31893e-06
1.31644e-06
1.31644e-06
1.31644e-06
1.31644e-06
1.31907e-06
1.31952e-06
1.32096e-06
1.32085e-06
1.31953e-06
1.31945e-06
1.31941e-06
1.31939e-06
1.31944e-06
1.31952e-06
1.32077e-06
1.32095e-06
1.32072e-06
1.31964e-06
1.3209e-06
1.32096e-06
1.30628e-06
1.30617e-06
1.30606e-06
1.30462e-06
1.30453e-06
1.30449e-06
1.30459e-06
1.306e-06
1.30616e-06
1.30606e-06
1.30415e-06
1.30176e-06
1.30176e-06
1.30176e-06
1.30176e-06
1.30425e-06
1.30485e-06
1.30462e-06
1.30176e-06
1.30176e-06
1.30176e-06
1.30176e-06
1.30176e-06
1.30176e-06
1.30477e-06
1.30626e-06
1.30628e-06
1.30453e-06
1.30176e-06
1.30176e-06
1.30176e-06
1.30176e-06
1.30176e-06
1.30176e-06
1.30473e-06
1.30604e-06
1.30617e-06
1.30449e-06
1.30176e-06
1.30176e-06
1.30176e-06
1.30176e-06
1.30176e-06
1.30176e-06
1.3047e-06
1.30496e-06
1.30459e-06
1.30176e-06
1.30176e-06
1.30176e-06
1.30176e-06
1.30176e-06
1.30176e-06
1.30476e-06
1.30622e-06
1.306e-06
1.30425e-06
1.30176e-06
1.30176e-06
1.30176e-06
1.30176e-06
1.30439e-06
1.30484e-06
1.30628e-06
1.30616e-06
1.30485e-06
1.30477e-06
1.30473e-06
1.3047e-06
1.30476e-06
1.30484e-06
1.30608e-06
1.30626e-06
1.30604e-06
1.30496e-06
1.30622e-06
1.30628e-06
1.2916e-06
1.29149e-06
1.29138e-06
1.28994e-06
1.28985e-06
1.28981e-06
1.28991e-06
1.29131e-06
1.29148e-06
1.29138e-06
1.28947e-06
1.28708e-06
1.28708e-06
1.28708e-06
1.28708e-06
1.28957e-06
1.29017e-06
1.28994e-06
1.28708e-06
1.28708e-06
1.28708e-06
1.28708e-06
1.28708e-06
1.28708e-06
1.29009e-06
1.29158e-06
1.2916e-06
1.28985e-06
1.28708e-06
1.28708e-06
1.28708e-06
1.28708e-06
1.28708e-06
1.28708e-06
1.29005e-06
1.29136e-06
1.29149e-06
1.28981e-06
1.28708e-06
1.28708e-06
1.28708e-06
1.28708e-06
1.28708e-06
1.28708e-06
1.29002e-06
1.29027e-06
1.28991e-06
1.28708e-06
1.28708e-06
1.28708e-06
1.28708e-06
1.28708e-06
1.28708e-06
1.29008e-06
1.29154e-06
1.29131e-06
1.28957e-06
1.28708e-06
1.28708e-06
1.28708e-06
1.28708e-06
1.28971e-06
1.29015e-06
1.2916e-06
1.29148e-06
1.29017e-06
1.29009e-06
1.29005e-06
1.29002e-06
1.29008e-06
1.29015e-06
1.2914e-06
1.29158e-06
1.29136e-06
1.29027e-06
1.29154e-06
1.2916e-06
1.27692e-06
1.27681e-06
1.27669e-06
1.27526e-06
1.27517e-06
1.27513e-06
1.27523e-06
1.27663e-06
1.2768e-06
1.27669e-06
1.27479e-06
1.2724e-06
1.2724e-06
1.2724e-06
1.2724e-06
1.27488e-06
1.27548e-06
1.27526e-06
1.2724e-06
1.2724e-06
1.2724e-06
1.2724e-06
1.2724e-06
1.2724e-06
1.27541e-06
1.2769e-06
1.27692e-06
1.27517e-06
1.2724e-06
1.2724e-06
1.2724e-06
1.2724e-06
1.2724e-06
1.2724e-06
1.27537e-06
1.27668e-06
1.27681e-06
1.27513e-06
1.2724e-06
1.2724e-06
1.2724e-06
1.2724e-06
1.2724e-06
1.2724e-06
1.27534e-06
1.27559e-06
1.27523e-06
1.2724e-06
1.2724e-06
1.2724e-06
1.2724e-06
1.2724e-06
1.2724e-06
1.27539e-06
1.27686e-06
1.27663e-06
1.27488e-06
1.2724e-06
1.2724e-06
1.2724e-06
1.2724e-06
1.27503e-06
1.27547e-06
1.27692e-06
1.2768e-06
1.27548e-06
1.27541e-06
1.27537e-06
1.27534e-06
1.27539e-06
1.27547e-06
1.27672e-06
1.2769e-06
1.27668e-06
1.27559e-06
1.27686e-06
1.27692e-06
1.26224e-06
1.26213e-06
1.26201e-06
1.26058e-06
1.26049e-06
1.26044e-06
1.26055e-06
1.26195e-06
1.26212e-06
1.26201e-06
1.26011e-06
1.25772e-06
1.25772e-06
1.25772e-06
1.25772e-06
1.2602e-06
1.2608e-06
1.26058e-06
1.25772e-06
1.25772e-06
1.25772e-06
1.25771e-06
1.25772e-06
1.25772e-06
1.26072e-06
1.26222e-06
1.26224e-06
1.26049e-06
1.25772e-06
1.25772e-06
1.25772e-06
1.25771e-06
1.25772e-06
1.25772e-06
1.26069e-06
1.262e-06
1.26212e-06
1.26045e-06
1.25772e-06
1.25772e-06
1.25772e-06
1.25771e-06
1.25772e-06
1.25772e-06
1.26066e-06
1.26091e-06
1.26055e-06
1.25772e-06
1.25772e-06
1.25772e-06
1.25772e-06
1.25772e-06
1.25772e-06
1.26071e-06
1.26218e-06
1.26195e-06
1.2602e-06
1.25771e-06
1.25772e-06
1.25772e-06
1.25772e-06
1.26034e-06
1.26079e-06
1.26223e-06
1.26212e-06
1.2608e-06
1.26072e-06
1.26069e-06
1.26066e-06
1.26071e-06
1.26079e-06
1.26204e-06
1.26222e-06
1.262e-06
1.26091e-06
1.26217e-06
1.26223e-06
1.24756e-06
1.24745e-06
1.24733e-06
1.24589e-06
1.24581e-06
1.24576e-06
1.24586e-06
1.24727e-06
1.24744e-06
1.24733e-06
1.24543e-06
1.24303e-06
1.24303e-06
1.24303e-06
1.24303e-06
1.24552e-06
1.24612e-06
1.24589e-06
1.24303e-06
1.24303e-06
1.24303e-06
1.24303e-06
1.24303e-06
1.24303e-06
1.24604e-06
1.24754e-06
1.24756e-06
1.24581e-06
1.24303e-06
1.24303e-06
1.24303e-06
1.24303e-06
1.24303e-06
1.24303e-06
1.24601e-06
1.24732e-06
1.24745e-06
1.24576e-06
1.24303e-06
1.24303e-06
1.24303e-06
1.24303e-06
1.24303e-06
1.24303e-06
1.24598e-06
1.24623e-06
1.24586e-06
1.24303e-06
1.24303e-06
1.24303e-06
1.24303e-06
1.24303e-06
1.24303e-06
1.24603e-06
1.24749e-06
1.24727e-06
1.24552e-06
1.24303e-06
1.24303e-06
1.24303e-06
1.24303e-06
1.24566e-06
1.24611e-06
1.24755e-06
1.24744e-06
1.24612e-06
1.24604e-06
1.24601e-06
1.24598e-06
1.24603e-06
1.24611e-06
1.24736e-06
1.24754e-06
1.24732e-06
1.24623e-06
1.24749e-06
1.24755e-06
1.23287e-06
1.23276e-06
1.23265e-06
1.23121e-06
1.23112e-06
1.23108e-06
1.23118e-06
1.23259e-06
1.23275e-06
1.23265e-06
1.23075e-06
1.22835e-06
1.22835e-06
1.22835e-06
1.22835e-06
1.23084e-06
1.23144e-06
1.23121e-06
1.22835e-06
1.22835e-06
1.22835e-06
1.22835e-06
1.22835e-06
1.22835e-06
1.23136e-06
1.23286e-06
1.23287e-06
1.23112e-06
1.22835e-06
1.22835e-06
1.22835e-06
1.22835e-06
1.22835e-06
1.22835e-06
1.23132e-06
1.23263e-06
1.23276e-06
1.23108e-06
1.22835e-06
1.22835e-06
1.22835e-06
1.22835e-06
1.22835e-06
1.22835e-06
1.2313e-06
1.23155e-06
1.23118e-06
1.22835e-06
1.22835e-06
1.22835e-06
1.22835e-06
1.22835e-06
1.22835e-06
1.23135e-06
1.23281e-06
1.23259e-06
1.23084e-06
1.22835e-06
1.22835e-06
1.22835e-06
1.22835e-06
1.23098e-06
1.23143e-06
1.23287e-06
1.23275e-06
1.23144e-06
1.23136e-06
1.23132e-06
1.2313e-06
1.23135e-06
1.23143e-06
1.23268e-06
1.23286e-06
1.23263e-06
1.23155e-06
1.23281e-06
1.23287e-06
1.21819e-06
1.21808e-06
1.21797e-06
1.21653e-06
1.21644e-06
1.2164e-06
1.2165e-06
1.21791e-06
1.21807e-06
1.21797e-06
1.21606e-06
1.21367e-06
1.21367e-06
1.21367e-06
1.21367e-06
1.21616e-06
1.21676e-06
1.21653e-06
1.21367e-06
1.21367e-06
1.21367e-06
1.21367e-06
1.21367e-06
1.21367e-06
1.21668e-06
1.21817e-06
1.21819e-06
1.21644e-06
1.21367e-06
1.21367e-06
1.21367e-06
1.21367e-06
1.21367e-06
1.21367e-06
1.21664e-06
1.21795e-06
1.21808e-06
1.2164e-06
1.21367e-06
1.21367e-06
1.21367e-06
1.21367e-06
1.21367e-06
1.21367e-06
1.21662e-06
1.21687e-06
1.2165e-06
1.21367e-06
1.21367e-06
1.21367e-06
1.21367e-06
1.21367e-06
1.21367e-06
1.21667e-06
1.21813e-06
1.21791e-06
1.21616e-06
1.21367e-06
1.21367e-06
1.21367e-06
1.21367e-06
1.2163e-06
1.21675e-06
1.21819e-06
1.21807e-06
1.21676e-06
1.21668e-06
1.21664e-06
1.21661e-06
1.21667e-06
1.21675e-06
1.21799e-06
1.21817e-06
1.21795e-06
1.21687e-06
1.21813e-06
1.21819e-06
1.20351e-06
1.2034e-06
1.20329e-06
1.20185e-06
1.20176e-06
1.20172e-06
1.20182e-06
1.20322e-06
1.20339e-06
1.20329e-06
1.20138e-06
1.19899e-06
1.19899e-06
1.19899e-06
1.19899e-06
1.20148e-06
1.20208e-06
1.20185e-06
1.19899e-06
1.19899e-06
1.19899e-06
1.19899e-06
1.19899e-06
1.19899e-06
1.202e-06
1.20349e-06
1.20351e-06
1.20176e-06
1.19899e-06
1.19899e-06
1.19899e-06
1.19899e-06
1.19899e-06
1.19899e-06
1.20196e-06
1.20327e-06
1.2034e-06
1.20172e-06
1.19899e-06
1.19899e-06
1.19899e-06
1.19899e-06
1.19899e-06
1.19899e-06
1.20193e-06
1.20218e-06
1.20182e-06
1.19899e-06
1.19899e-06
1.19899e-06
1.19899e-06
1.19899e-06
1.19899e-06
1.20199e-06
1.20345e-06
1.20322e-06
1.20148e-06
1.19899e-06
1.19899e-06
1.19899e-06
1.19899e-06
1.20162e-06
1.20206e-06
1.20351e-06
1.20339e-06
1.20208e-06
1.202e-06
1.20196e-06
1.20193e-06
1.20199e-06
1.20206e-06
1.20331e-06
1.20349e-06
1.20327e-06
1.20218e-06
1.20345e-06
1.20351e-06
1.18883e-06
1.18872e-06
1.18861e-06
1.18717e-06
1.18708e-06
1.18704e-06
1.18714e-06
1.18854e-06
1.18871e-06
1.18861e-06
1.1867e-06
1.18431e-06
1.18431e-06
1.18431e-06
1.18431e-06
1.18679e-06
1.1874e-06
1.18717e-06
1.18431e-06
1.18431e-06
1.18431e-06
1.18431e-06
1.18431e-06
1.18431e-06
1.18732e-06
1.18881e-06
1.18883e-06
1.18708e-06
1.18431e-06
1.18431e-06
1.18431e-06
1.18431e-06
1.18431e-06
1.18431e-06
1.18728e-06
1.18859e-06
1.18872e-06
1.18704e-06
1.18431e-06
1.18431e-06
1.18431e-06
1.18431e-06
1.18431e-06
1.18431e-06
1.18725e-06
1.1875e-06
1.18714e-06
1.18431e-06
1.18431e-06
1.18431e-06
1.18431e-06
1.18431e-06
1.18431e-06
1.1873e-06
1.18877e-06
1.18854e-06
1.18679e-06
1.18431e-06
1.18431e-06
1.18431e-06
1.18431e-06
1.18694e-06
1.18738e-06
1.18883e-06
1.18871e-06
1.1874e-06
1.18732e-06
1.18728e-06
1.18725e-06
1.1873e-06
1.18738e-06
1.18863e-06
1.18881e-06
1.18859e-06
1.1875e-06
1.18877e-06
1.18883e-06
1.17415e-06
1.17404e-06
1.17392e-06
1.17249e-06
1.1724e-06
1.17236e-06
1.17246e-06
1.17386e-06
1.17403e-06
1.17392e-06
1.17202e-06
1.16963e-06
1.16963e-06
1.16963e-06
1.16963e-06
1.17211e-06
1.17271e-06
1.17249e-06
1.16963e-06
1.16963e-06
1.16963e-06
1.16963e-06
1.16963e-06
1.16963e-06
1.17264e-06
1.17413e-06
1.17415e-06
1.1724e-06
1.16963e-06
1.16963e-06
1.16963e-06
1.16963e-06
1.16963e-06
1.16963e-06
1.1726e-06
1.17391e-06
1.17404e-06
1.17236e-06
1.16963e-06
1.16963e-06
1.16963e-06
1.16963e-06
1.16963e-06
1.16963e-06
1.17257e-06
1.17282e-06
1.17246e-06
1.16963e-06
1.16963e-06
1.16963e-06
1.16963e-06
1.16963e-06
1.16963e-06
1.17262e-06
1.17409e-06
1.17386e-06
1.17211e-06
1.16963e-06
1.16963e-06
1.16963e-06
1.16963e-06
1.17225e-06
1.1727e-06
1.17414e-06
1.17403e-06
1.17271e-06
1.17264e-06
1.1726e-06
1.17257e-06
1.17262e-06
1.1727e-06
1.17395e-06
1.17413e-06
1.17391e-06
1.17282e-06
1.17409e-06
1.17414e-06
1.15947e-06
1.15936e-06
1.15924e-06
1.15781e-06
1.15772e-06
1.15767e-06
1.15777e-06
1.15918e-06
1.15935e-06
1.15924e-06
1.15734e-06
1.15495e-06
1.15494e-06
1.15495e-06
1.15494e-06
1.15743e-06
1.15803e-06
1.15781e-06
1.15494e-06
1.15495e-06
1.15494e-06
1.15495e-06
1.15495e-06
1.15494e-06
1.15795e-06
1.15945e-06
1.15947e-06
1.15772e-06
1.15494e-06
1.15495e-06
1.15494e-06
1.15495e-06
1.15495e-06
1.15495e-06
1.15792e-06
1.15923e-06
1.15936e-06
1.15767e-06
1.15495e-06
1.15495e-06
1.15495e-06
1.15495e-06
1.15495e-06
1.15494e-06
1.15789e-06
1.15814e-06
1.15777e-06
1.15494e-06
1.15495e-06
1.15494e-06
1.15494e-06
1.15494e-06
1.15494e-06
1.15794e-06
1.1594e-06
1.15918e-06
1.15743e-06
1.15495e-06
1.15495e-06
1.15495e-06
1.15495e-06
1.15757e-06
1.15802e-06
1.15946e-06
1.15935e-06
1.15803e-06
1.15795e-06
1.15792e-06
1.15789e-06
1.15794e-06
1.15802e-06
1.15927e-06
1.15945e-06
1.15923e-06
1.15814e-06
1.1594e-06
1.15946e-06
1.14479e-06
1.14468e-06
1.14456e-06
1.14312e-06
1.14303e-06
1.14299e-06
1.14309e-06
1.1445e-06
1.14467e-06
1.14456e-06
1.14266e-06
1.14026e-06
1.14026e-06
1.14026e-06
1.14026e-06
1.14275e-06
1.14335e-06
1.14312e-06
1.14026e-06
1.14027e-06
1.14026e-06
1.14026e-06
1.14026e-06
1.14026e-06
1.14327e-06
1.14477e-06
1.14479e-06
1.14303e-06
1.14026e-06
1.14026e-06
1.14026e-06
1.14026e-06
1.14026e-06
1.14026e-06
1.14324e-06
1.14454e-06
1.14468e-06
1.14299e-06
1.14026e-06
1.14026e-06
1.14026e-06
1.14026e-06
1.14026e-06
1.14026e-06
1.14321e-06
1.14346e-06
1.14309e-06
1.14026e-06
1.14026e-06
1.14026e-06
1.14026e-06
1.14026e-06
1.14026e-06
1.14326e-06
1.14472e-06
1.1445e-06
1.14275e-06
1.14026e-06
1.14026e-06
1.14026e-06
1.14026e-06
1.14289e-06
1.14334e-06
1.14478e-06
1.14467e-06
1.14335e-06
1.14327e-06
1.14324e-06
1.14321e-06
1.14326e-06
1.14334e-06
1.14459e-06
1.14477e-06
1.14455e-06
1.14346e-06
1.14472e-06
1.14478e-06
1.1301e-06
1.12999e-06
1.12988e-06
1.12844e-06
1.12835e-06
1.12831e-06
1.12841e-06
1.12982e-06
1.12998e-06
1.12988e-06
1.12797e-06
1.12558e-06
1.12558e-06
1.12558e-06
1.12558e-06
1.12807e-06
1.12867e-06
1.12844e-06
1.12558e-06
1.12558e-06
1.12558e-06
1.12558e-06
1.12558e-06
1.12558e-06
1.12859e-06
1.13008e-06
1.1301e-06
1.12835e-06
1.12558e-06
1.12558e-06
1.12558e-06
1.12558e-06
1.12558e-06
1.12558e-06
1.12855e-06
1.12986e-06
1.12999e-06
1.12831e-06
1.12558e-06
1.12558e-06
1.12558e-06
1.12558e-06
1.12558e-06
1.12558e-06
1.12852e-06
1.12878e-06
1.12841e-06
1.12558e-06
1.12558e-06
1.12558e-06
1.12558e-06
1.12558e-06
1.12558e-06
1.12858e-06
1.13004e-06
1.12982e-06
1.12807e-06
1.12558e-06
1.12558e-06
1.12558e-06
1.12558e-06
1.12821e-06
1.12866e-06
1.1301e-06
1.12998e-06
1.12867e-06
1.12859e-06
1.12855e-06
1.12853e-06
1.12858e-06
1.12866e-06
1.12991e-06
1.13008e-06
1.12986e-06
1.12878e-06
1.13004e-06
1.1301e-06
1.11542e-06
1.11531e-06
1.1152e-06
1.11376e-06
1.11367e-06
1.11363e-06
1.11373e-06
1.11513e-06
1.1153e-06
1.1152e-06
1.11329e-06
1.1109e-06
1.1109e-06
1.1109e-06
1.1109e-06
1.11339e-06
1.11399e-06
1.11376e-06
1.1109e-06
1.1109e-06
1.1109e-06
1.1109e-06
1.1109e-06
1.1109e-06
1.11391e-06
1.1154e-06
1.11542e-06
1.11367e-06
1.1109e-06
1.1109e-06
1.1109e-06
1.1109e-06
1.1109e-06
1.1109e-06
1.11387e-06
1.11518e-06
1.11531e-06
1.11363e-06
1.1109e-06
1.1109e-06
1.1109e-06
1.1109e-06
1.1109e-06
1.1109e-06
1.11384e-06
1.11409e-06
1.11373e-06
1.1109e-06
1.1109e-06
1.1109e-06
1.1109e-06
1.1109e-06
1.1109e-06
1.1139e-06
1.11536e-06
1.11513e-06
1.11339e-06
1.1109e-06
1.1109e-06
1.1109e-06
1.1109e-06
1.11353e-06
1.11397e-06
1.11542e-06
1.1153e-06
1.11399e-06
1.11391e-06
1.11387e-06
1.11384e-06
1.1139e-06
1.11397e-06
1.11522e-06
1.1154e-06
1.11518e-06
1.1141e-06
1.11536e-06
1.11542e-06
1.10074e-06
1.10063e-06
1.10052e-06
1.09908e-06
1.09899e-06
1.09895e-06
1.09905e-06
1.10045e-06
1.10062e-06
1.10052e-06
1.09861e-06
1.09622e-06
1.09622e-06
1.09622e-06
1.09622e-06
1.0987e-06
1.0993e-06
1.09908e-06
1.09622e-06
1.09622e-06
1.09622e-06
1.09622e-06
1.09622e-06
1.09622e-06
1.09923e-06
1.10072e-06
1.10074e-06
1.09899e-06
1.09622e-06
1.09622e-06
1.09622e-06
1.09622e-06
1.09622e-06
1.09622e-06
1.09919e-06
1.1005e-06
1.10063e-06
1.09895e-06
1.09622e-06
1.09622e-06
1.09622e-06
1.09622e-06
1.09622e-06
1.09622e-06
1.09916e-06
1.09941e-06
1.09905e-06
1.09622e-06
1.09622e-06
1.09622e-06
1.09622e-06
1.09622e-06
1.09622e-06
1.09921e-06
1.10068e-06
1.10045e-06
1.0987e-06
1.09622e-06
1.09622e-06
1.09622e-06
1.09622e-06
1.09885e-06
1.09929e-06
1.10074e-06
1.10062e-06
1.0993e-06
1.09923e-06
1.09919e-06
1.09916e-06
1.09921e-06
1.09929e-06
1.10054e-06
1.10072e-06
1.1005e-06
1.09941e-06
1.10068e-06
1.10074e-06
1.08606e-06
1.08595e-06
1.08583e-06
1.0844e-06
1.08431e-06
1.08427e-06
1.08437e-06
1.08577e-06
1.08594e-06
1.08583e-06
1.08393e-06
1.08154e-06
1.08154e-06
1.08154e-06
1.08154e-06
1.08402e-06
1.08462e-06
1.0844e-06
1.08154e-06
1.08154e-06
1.08154e-06
1.08154e-06
1.08153e-06
1.08154e-06
1.08455e-06
1.08604e-06
1.08606e-06
1.08431e-06
1.08154e-06
1.08154e-06
1.08154e-06
1.08154e-06
1.08154e-06
1.08154e-06
1.08451e-06
1.08582e-06
1.08595e-06
1.08426e-06
1.08154e-06
1.08154e-06
1.08154e-06
1.08153e-06
1.08154e-06
1.08154e-06
1.08448e-06
1.08473e-06
1.08437e-06
1.08154e-06
1.08154e-06
1.08154e-06
1.08154e-06
1.08154e-06
1.08154e-06
1.08453e-06
1.086e-06
1.08577e-06
1.08402e-06
1.08154e-06
1.08154e-06
1.08154e-06
1.08154e-06
1.08416e-06
1.08461e-06
1.08605e-06
1.08594e-06
1.08462e-06
1.08455e-06
1.08451e-06
1.08448e-06
1.08453e-06
1.08461e-06
1.08586e-06
1.08604e-06
1.08582e-06
1.08473e-06
1.086e-06
1.08605e-06
1.07138e-06
1.07127e-06
1.07115e-06
1.06971e-06
1.06963e-06
1.06958e-06
1.06968e-06
1.07109e-06
1.07126e-06
1.07115e-06
1.06925e-06
1.06685e-06
1.06686e-06
1.06685e-06
1.06685e-06
1.06934e-06
1.06994e-06
1.06971e-06
1.06685e-06
1.06685e-06
1.06686e-06
1.06686e-06
1.06686e-06
1.06685e-06
1.06986e-06
1.07136e-06
1.07138e-06
1.06963e-06
1.06685e-06
1.06685e-06
1.06685e-06
1.06685e-06
1.06685e-06
1.06685e-06
1.06983e-06
1.07114e-06
1.07127e-06
1.06958e-06
1.06685e-06
1.06685e-06
1.06686e-06
1.06686e-06
1.06685e-06
1.06685e-06
1.0698e-06
1.07005e-06
1.06968e-06
1.06685e-06
1.06685e-06
1.06685e-06
1.06685e-06
1.06685e-06
1.06685e-06
1.06985e-06
1.07131e-06
1.07109e-06
1.06934e-06
1.06685e-06
1.06685e-06
1.06685e-06
1.06685e-06
1.06948e-06
1.06993e-06
1.07137e-06
1.07126e-06
1.06994e-06
1.06986e-06
1.06983e-06
1.0698e-06
1.06985e-06
1.06993e-06
1.07118e-06
1.07136e-06
1.07114e-06
1.07005e-06
1.07131e-06
1.07137e-06
1.05669e-06
1.05658e-06
1.05647e-06
1.05503e-06
1.05494e-06
1.0549e-06
1.055e-06
1.05641e-06
1.05657e-06
1.05647e-06
1.05457e-06
1.05217e-06
1.05217e-06
1.05217e-06
1.05217e-06
1.05466e-06
1.05526e-06
1.05503e-06
1.05217e-06
1.05217e-06
1.05217e-06
1.05217e-06
1.05217e-06
1.05217e-06
1.05518e-06
1.05668e-06
1.05669e-06
1.05494e-06
1.05217e-06
1.05217e-06
1.05217e-06
1.05217e-06
1.05217e-06
1.05217e-06
1.05514e-06
1.05645e-06
1.05658e-06
1.0549e-06
1.05217e-06
1.05217e-06
1.05217e-06
1.05217e-06
1.05217e-06
1.05217e-06
1.05512e-06
1.05537e-06
1.055e-06
1.05217e-06
1.05217e-06
1.05217e-06
1.05217e-06
1.05217e-06
1.05217e-06
1.05517e-06
1.05663e-06
1.05641e-06
1.05466e-06
1.05217e-06
1.05217e-06
1.05217e-06
1.05217e-06
1.0548e-06
1.05525e-06
1.05669e-06
1.05657e-06
1.05526e-06
1.05518e-06
1.05514e-06
1.05512e-06
1.05517e-06
1.05525e-06
1.0565e-06
1.05668e-06
1.05645e-06
1.05537e-06
1.05663e-06
1.05669e-06
1.04201e-06
1.0419e-06
1.04179e-06
1.04035e-06
1.04026e-06
1.04022e-06
1.04032e-06
1.04173e-06
1.04189e-06
1.04179e-06
1.03988e-06
1.03749e-06
1.03749e-06
1.03749e-06
1.03749e-06
1.03998e-06
1.04058e-06
1.04035e-06
1.03749e-06
1.03749e-06
1.03749e-06
1.03749e-06
1.03749e-06
1.03749e-06
1.0405e-06
1.04199e-06
1.04201e-06
1.04026e-06
1.03749e-06
1.03749e-06
1.03749e-06
1.03749e-06
1.03749e-06
1.03749e-06
1.04046e-06
1.04177e-06
1.0419e-06
1.04022e-06
1.03749e-06
1.03749e-06
1.03749e-06
1.03749e-06
1.03749e-06
1.03749e-06
1.04044e-06
1.04069e-06
1.04032e-06
1.03749e-06
1.03749e-06
1.03749e-06
1.03749e-06
1.03749e-06
1.03749e-06
1.04049e-06
1.04195e-06
1.04173e-06
1.03998e-06
1.03749e-06
1.03749e-06
1.03749e-06
1.03749e-06
1.04012e-06
1.04057e-06
1.04201e-06
1.04189e-06
1.04058e-06
1.0405e-06
1.04046e-06
1.04044e-06
1.04049e-06
1.04057e-06
1.04181e-06
1.04199e-06
1.04177e-06
1.04069e-06
1.04195e-06
1.04201e-06
1.02733e-06
1.02722e-06
1.02711e-06
1.02567e-06
1.02558e-06
1.02554e-06
1.02564e-06
1.02704e-06
1.02721e-06
1.02711e-06
1.0252e-06
1.02281e-06
1.02281e-06
1.02281e-06
1.02281e-06
1.0253e-06
1.0259e-06
1.02567e-06
1.02281e-06
1.02281e-06
1.02281e-06
1.02281e-06
1.02281e-06
1.02281e-06
1.02582e-06
1.02731e-06
1.02733e-06
1.02558e-06
1.02281e-06
1.02281e-06
1.02281e-06
1.02281e-06
1.02281e-06
1.02281e-06
1.02578e-06
1.02709e-06
1.02722e-06
1.02554e-06
1.02281e-06
1.02281e-06
1.02281e-06
1.02281e-06
1.02281e-06
1.02281e-06
1.02575e-06
1.026e-06
1.02564e-06
1.02281e-06
1.02281e-06
1.02281e-06
1.02281e-06
1.02281e-06
1.02281e-06
1.02581e-06
1.02727e-06
1.02704e-06
1.0253e-06
1.02281e-06
1.02281e-06
1.02281e-06
1.02281e-06
1.02544e-06
1.02588e-06
1.02733e-06
1.02721e-06
1.0259e-06
1.02582e-06
1.02578e-06
1.02575e-06
1.02581e-06
1.02588e-06
1.02713e-06
1.02731e-06
1.02709e-06
1.02601e-06
1.02727e-06
1.02733e-06
1.01265e-06
1.01254e-06
1.01243e-06
1.01099e-06
1.0109e-06
1.01086e-06
1.01096e-06
1.01236e-06
1.01253e-06
1.01243e-06
1.01052e-06
1.00813e-06
1.00813e-06
1.00813e-06
1.00813e-06
1.01061e-06
1.01122e-06
1.01099e-06
1.00813e-06
1.00813e-06
1.00813e-06
1.00813e-06
1.00813e-06
1.00813e-06
1.01114e-06
1.01263e-06
1.01265e-06
1.0109e-06
1.00813e-06
1.00813e-06
1.00813e-06
1.00813e-06
1.00813e-06
1.00813e-06
1.0111e-06
1.01241e-06
1.01254e-06
1.01086e-06
1.00813e-06
1.00813e-06
1.00813e-06
1.00813e-06
1.00813e-06
1.00813e-06
1.01107e-06
1.01132e-06
1.01096e-06
1.00813e-06
1.00813e-06
1.00813e-06
1.00813e-06
1.00813e-06
1.00813e-06
1.01112e-06
1.01259e-06
1.01236e-06
1.01061e-06
1.00813e-06
1.00813e-06
1.00813e-06
1.00813e-06
1.01076e-06
1.0112e-06
1.01265e-06
1.01253e-06
1.01122e-06
1.01114e-06
1.0111e-06
1.01107e-06
1.01112e-06
1.0112e-06
1.01245e-06
1.01263e-06
1.01241e-06
1.01132e-06
1.01259e-06
1.01265e-06
9.97969e-07
9.97859e-07
9.97744e-07
9.96307e-07
9.96218e-07
9.96176e-07
9.96276e-07
9.97681e-07
9.97849e-07
9.97744e-07
9.9584e-07
9.93447e-07
9.93447e-07
9.93447e-07
9.93446e-07
9.95933e-07
9.96534e-07
9.96306e-07
9.93446e-07
9.93447e-07
9.93447e-07
9.93447e-07
9.93447e-07
9.93447e-07
9.96456e-07
9.97949e-07
9.97969e-07
9.96218e-07
9.93447e-07
9.93447e-07
9.93446e-07
9.93447e-07
9.93447e-07
9.93446e-07
9.96419e-07
9.97728e-07
9.97859e-07
9.96176e-07
9.93446e-07
9.93448e-07
9.93446e-07
9.93447e-07
9.93447e-07
9.93447e-07
9.9639e-07
9.96641e-07
9.96277e-07
9.93447e-07
9.93447e-07
9.93447e-07
9.93447e-07
9.93447e-07
9.93447e-07
9.96443e-07
9.97906e-07
9.97682e-07
9.95933e-07
9.93447e-07
9.93447e-07
9.93447e-07
9.93447e-07
9.96075e-07
9.96521e-07
9.97965e-07
9.97849e-07
9.96534e-07
9.96456e-07
9.96418e-07
9.9639e-07
9.96443e-07
9.96522e-07
9.97771e-07
9.9795e-07
9.97729e-07
9.96642e-07
9.97906e-07
9.97965e-07
9.83287e-07
9.83177e-07
9.83063e-07
9.81625e-07
9.81537e-07
9.81494e-07
9.81595e-07
9.83e-07
9.83167e-07
9.83062e-07
9.81158e-07
9.78765e-07
9.78765e-07
9.78765e-07
9.78766e-07
9.81251e-07
9.81852e-07
9.81625e-07
9.78766e-07
9.78765e-07
9.78766e-07
9.78766e-07
9.78765e-07
9.78765e-07
9.81774e-07
9.83268e-07
9.83286e-07
9.81537e-07
9.78766e-07
9.78764e-07
9.78766e-07
9.78766e-07
9.78767e-07
9.78766e-07
9.81737e-07
9.83047e-07
9.83173e-07
9.81495e-07
9.78766e-07
9.78765e-07
9.78765e-07
9.78764e-07
9.78764e-07
9.78765e-07
9.81709e-07
9.8196e-07
9.81595e-07
9.78766e-07
9.78765e-07
9.78765e-07
9.78766e-07
9.78765e-07
9.78766e-07
9.81761e-07
9.83225e-07
9.83e-07
9.81252e-07
9.78765e-07
9.78766e-07
9.78766e-07
9.78766e-07
9.81393e-07
9.8184e-07
9.83283e-07
9.83167e-07
9.81853e-07
9.81775e-07
9.81737e-07
9.81709e-07
9.81762e-07
9.8184e-07
9.83089e-07
9.83268e-07
9.83047e-07
9.8196e-07
9.83225e-07
9.83283e-07
9.68606e-07
9.68496e-07
9.68381e-07
9.66944e-07
9.66855e-07
9.66813e-07
9.66913e-07
9.68318e-07
9.68486e-07
9.68381e-07
9.66477e-07
9.64084e-07
9.64084e-07
9.64084e-07
9.64084e-07
9.6657e-07
9.67171e-07
9.66944e-07
9.64084e-07
9.64083e-07
9.64084e-07
9.64084e-07
9.64084e-07
9.64084e-07
9.67093e-07
9.68587e-07
9.68605e-07
9.66855e-07
9.64084e-07
9.64084e-07
9.64084e-07
9.64082e-07
9.64083e-07
9.64084e-07
9.67055e-07
9.68365e-07
9.68495e-07
9.66813e-07
9.64084e-07
9.64083e-07
9.64085e-07
9.64083e-07
9.64085e-07
9.64084e-07
9.67028e-07
9.67278e-07
9.66914e-07
9.64083e-07
9.64083e-07
9.64085e-07
9.64082e-07
9.64085e-07
9.64083e-07
9.6708e-07
9.68543e-07
9.68318e-07
9.6657e-07
9.64083e-07
9.64086e-07
9.64082e-07
9.64084e-07
9.66712e-07
9.67158e-07
9.68602e-07
9.68486e-07
9.67171e-07
9.67093e-07
9.67056e-07
9.67027e-07
9.6708e-07
9.67159e-07
9.68408e-07
9.68587e-07
9.68366e-07
9.67278e-07
9.68543e-07
9.68602e-07
9.53924e-07
9.53814e-07
9.537e-07
9.52262e-07
9.52173e-07
9.52131e-07
9.52232e-07
9.53637e-07
9.53804e-07
9.53699e-07
9.51795e-07
9.49402e-07
9.49401e-07
9.49402e-07
9.49402e-07
9.51888e-07
9.52489e-07
9.52262e-07
9.49403e-07
9.49403e-07
9.49403e-07
9.49402e-07
9.49402e-07
9.49402e-07
9.52411e-07
9.53905e-07
9.53924e-07
9.52174e-07
9.49402e-07
9.49401e-07
9.49402e-07
9.49403e-07
9.49402e-07
9.49402e-07
9.52374e-07
9.53683e-07
9.53814e-07
9.52131e-07
9.49402e-07
9.49402e-07
9.49402e-07
9.49403e-07
9.49402e-07
9.49402e-07
9.52346e-07
9.52597e-07
9.52232e-07
9.49402e-07
9.49402e-07
9.49402e-07
9.49403e-07
9.49401e-07
9.49401e-07
9.52398e-07
9.53861e-07
9.53637e-07
9.51888e-07
9.49402e-07
9.49401e-07
9.49403e-07
9.49402e-07
9.5203e-07
9.52477e-07
9.5392e-07
9.53804e-07
9.52489e-07
9.52412e-07
9.52374e-07
9.52346e-07
9.52398e-07
9.52477e-07
9.53726e-07
9.53905e-07
9.53684e-07
9.52597e-07
9.53861e-07
9.5392e-07
9.39242e-07
9.39132e-07
9.39018e-07
9.3758e-07
9.37492e-07
9.37449e-07
9.3755e-07
9.38955e-07
9.39122e-07
9.39017e-07
9.37113e-07
9.34721e-07
9.3472e-07
9.34721e-07
9.3472e-07
9.37207e-07
9.37807e-07
9.3758e-07
9.3472e-07
9.34721e-07
9.3472e-07
9.3472e-07
9.3472e-07
9.3472e-07
9.37729e-07
9.39223e-07
9.39243e-07
9.37492e-07
9.3472e-07
9.34722e-07
9.3472e-07
9.3472e-07
9.3472e-07
9.34721e-07
9.37692e-07
9.39002e-07
9.39132e-07
9.37449e-07
9.34721e-07
9.3472e-07
9.3472e-07
9.3472e-07
9.3472e-07
9.3472e-07
9.37664e-07
9.37915e-07
9.3755e-07
9.34721e-07
9.3472e-07
9.3472e-07
9.3472e-07
9.34722e-07
9.3472e-07
9.37717e-07
9.3918e-07
9.38955e-07
9.37207e-07
9.3472e-07
9.34721e-07
9.34721e-07
9.3472e-07
9.37348e-07
9.37795e-07
9.39238e-07
9.39122e-07
9.37808e-07
9.37729e-07
9.37692e-07
9.37664e-07