/*--------------------------------*- C++ -*----------------------------------*\
| =========                 |                                                 |
| \\      /  F ield         | OpenFOAM: The Open Source CFD Toolbox           |
|  \\    /   O peration     | Version:  v2012                                 |
|   \\  /    A nd           | Website:  www.openfoam.com                      |
|    \\/     M anipulation  |                                                 |
\*---------------------------------------------------------------------------*/
FoamFile
{
    version     2.0;
    format      ascii;
    class       volScalarField;
    location    "2.5";
    object      p;
}
// * * * * * * * * * * * * * * * * * * * * * * * * * * * * * * * * * * * * * //

dimensions      [0 2 -2 0 0 0 0];


internalField   nonuniform List<scalar> 
244288
(
1.6985e-06
1.69878e-06
1.6988e-06
1.69861e-06
1.69849e-06
1.69864e-06
1.69882e-06
1.69878e-06
1.69874e-06
1.69858e-06
1.69832e-06
1.69821e-06
1.69835e-06
1.69862e-06
1.69874e-06
1.69881e-06
1.69858e-06
1.69818e-06
1.69779e-06
1.69764e-06
1.69782e-06
1.69823e-06
1.69862e-06
1.69883e-06
1.69861e-06
1.69832e-06
1.69779e-06
1.69733e-06
1.69717e-06
1.69737e-06
1.69786e-06
1.69838e-06
1.69862e-06
1.6985e-06
1.69849e-06
1.69821e-06
1.69764e-06
1.69717e-06
1.697e-06
1.69721e-06
1.69772e-06
1.69827e-06
1.69849e-06
1.69864e-06
1.69835e-06
1.69782e-06
1.69737e-06
1.69721e-06
1.69742e-06
1.69789e-06
1.69841e-06
1.69866e-06
1.69882e-06
1.69862e-06
1.69823e-06
1.69786e-06
1.69772e-06
1.69789e-06
1.69829e-06
1.69865e-06
1.69884e-06
1.69874e-06
1.69862e-06
1.69838e-06
1.69827e-06
1.69841e-06
1.69865e-06
1.69874e-06
1.69883e-06
1.69862e-06
1.69849e-06
1.69866e-06
1.69884e-06
1.66787e-06
1.66737e-06
1.66699e-06
1.66558e-06
1.66549e-06
1.66549e-06
1.66549e-06
1.66685e-06
1.66701e-06
1.66699e-06
1.66514e-06
1.66259e-06
1.66263e-06
1.66263e-06
1.6626e-06
1.66485e-06
1.66549e-06
1.66557e-06
1.66259e-06
1.6627e-06
1.66276e-06
1.66276e-06
1.6627e-06
1.66259e-06
1.66514e-06
1.66716e-06
1.66787e-06
1.66549e-06
1.66262e-06
1.66276e-06
1.66283e-06
1.66283e-06
1.66276e-06
1.66263e-06
1.66503e-06
1.66701e-06
1.66738e-06
1.66549e-06
1.66262e-06
1.66276e-06
1.66283e-06
1.66283e-06
1.66276e-06
1.66263e-06
1.66503e-06
1.66578e-06
1.66549e-06
1.66259e-06
1.6627e-06
1.66276e-06
1.66276e-06
1.6627e-06
1.6626e-06
1.66505e-06
1.66709e-06
1.66685e-06
1.66485e-06
1.66259e-06
1.66263e-06
1.66262e-06
1.66259e-06
1.66448e-06
1.66535e-06
1.66721e-06
1.66701e-06
1.66549e-06
1.66514e-06
1.66503e-06
1.66502e-06
1.66505e-06
1.66534e-06
1.66673e-06
1.66716e-06
1.66702e-06
1.66578e-06
1.66708e-06
1.66721e-06
1.65023e-06
1.65012e-06
1.64996e-06
1.64826e-06
1.64815e-06
1.64813e-06
1.64819e-06
1.64975e-06
1.65002e-06
1.64996e-06
1.64788e-06
1.64493e-06
1.64493e-06
1.64493e-06
1.64493e-06
1.64764e-06
1.64835e-06
1.64826e-06
1.64493e-06
1.64493e-06
1.64494e-06
1.64494e-06
1.64493e-06
1.64493e-06
1.64798e-06
1.64997e-06
1.65024e-06
1.64815e-06
1.64494e-06
1.64494e-06
1.64494e-06
1.64494e-06
1.64494e-06
1.64494e-06
1.64778e-06
1.64971e-06
1.6501e-06
1.64814e-06
1.64494e-06
1.64494e-06
1.64494e-06
1.64494e-06
1.64494e-06
1.64494e-06
1.64773e-06
1.64849e-06
1.64819e-06
1.64493e-06
1.64493e-06
1.64494e-06
1.64494e-06
1.64493e-06
1.64493e-06
1.64785e-06
1.64982e-06
1.64974e-06
1.64764e-06
1.64493e-06
1.64494e-06
1.64494e-06
1.64493e-06
1.64727e-06
1.64817e-06
1.65004e-06
1.65002e-06
1.64835e-06
1.64798e-06
1.64778e-06
1.64773e-06
1.64785e-06
1.64819e-06
1.64963e-06
1.64997e-06
1.64971e-06
1.64849e-06
1.64982e-06
1.65005e-06
1.6327e-06
1.63258e-06
1.63246e-06
1.63073e-06
1.6306e-06
1.63059e-06
1.63065e-06
1.63224e-06
1.63253e-06
1.63246e-06
1.63034e-06
1.62728e-06
1.62729e-06
1.62729e-06
1.62728e-06
1.63014e-06
1.63084e-06
1.63073e-06
1.62728e-06
1.62729e-06
1.62729e-06
1.62729e-06
1.62729e-06
1.62729e-06
1.63051e-06
1.63246e-06
1.6327e-06
1.6306e-06
1.62729e-06
1.62729e-06
1.62729e-06
1.62729e-06
1.62729e-06
1.62729e-06
1.63031e-06
1.63218e-06
1.63258e-06
1.63059e-06
1.62729e-06
1.62729e-06
1.62729e-06
1.62729e-06
1.62729e-06
1.62729e-06
1.63025e-06
1.63095e-06
1.63065e-06
1.62729e-06
1.62729e-06
1.62729e-06
1.62729e-06
1.62729e-06
1.62728e-06
1.63039e-06
1.63229e-06
1.63224e-06
1.63014e-06
1.62729e-06
1.62729e-06
1.62729e-06
1.62729e-06
1.62982e-06
1.63069e-06
1.63254e-06
1.63253e-06
1.63084e-06
1.63051e-06
1.63031e-06
1.63025e-06
1.63039e-06
1.6307e-06
1.63213e-06
1.63246e-06
1.63218e-06
1.63095e-06
1.63229e-06
1.63254e-06
1.61518e-06
1.61507e-06
1.61494e-06
1.61319e-06
1.61307e-06
1.61305e-06
1.61312e-06
1.61472e-06
1.61501e-06
1.61494e-06
1.6128e-06
1.6097e-06
1.6097e-06
1.6097e-06
1.6097e-06
1.61261e-06
1.61331e-06
1.6132e-06
1.6097e-06
1.6097e-06
1.60971e-06
1.60971e-06
1.6097e-06
1.6097e-06
1.613e-06
1.61494e-06
1.61518e-06
1.61307e-06
1.6097e-06
1.60971e-06
1.60971e-06
1.60971e-06
1.60971e-06
1.6097e-06
1.61281e-06
1.61466e-06
1.61507e-06
1.61306e-06
1.60971e-06
1.60971e-06
1.60971e-06
1.60971e-06
1.60971e-06
1.6097e-06
1.61276e-06
1.61342e-06
1.61312e-06
1.6097e-06
1.60971e-06
1.60971e-06
1.60971e-06
1.60971e-06
1.6097e-06
1.61288e-06
1.61477e-06
1.61472e-06
1.61261e-06
1.6097e-06
1.60971e-06
1.60971e-06
1.6097e-06
1.61231e-06
1.61317e-06
1.61502e-06
1.61501e-06
1.61331e-06
1.613e-06
1.61281e-06
1.61276e-06
1.61289e-06
1.61318e-06
1.61461e-06
1.61494e-06
1.61466e-06
1.61342e-06
1.61477e-06
1.61502e-06
1.59764e-06
1.59753e-06
1.59739e-06
1.59565e-06
1.59552e-06
1.59551e-06
1.59558e-06
1.59718e-06
1.59746e-06
1.59739e-06
1.59525e-06
1.59214e-06
1.59214e-06
1.59214e-06
1.59214e-06
1.59507e-06
1.59577e-06
1.59565e-06
1.59214e-06
1.59214e-06
1.59214e-06
1.59214e-06
1.59214e-06
1.59214e-06
1.59546e-06
1.59739e-06
1.59764e-06
1.59552e-06
1.59214e-06
1.59214e-06
1.59214e-06
1.59214e-06
1.59214e-06
1.59214e-06
1.59527e-06
1.59711e-06
1.59753e-06
1.59551e-06
1.59214e-06
1.59214e-06
1.59214e-06
1.59214e-06
1.59214e-06
1.59214e-06
1.59522e-06
1.59588e-06
1.59558e-06
1.59214e-06
1.59214e-06
1.59214e-06
1.59214e-06
1.59214e-06
1.59214e-06
1.59535e-06
1.59723e-06
1.59718e-06
1.59507e-06
1.59214e-06
1.59214e-06
1.59214e-06
1.59214e-06
1.59478e-06
1.59563e-06
1.59748e-06
1.59747e-06
1.59577e-06
1.59546e-06
1.59528e-06
1.59523e-06
1.59535e-06
1.59564e-06
1.59706e-06
1.59739e-06
1.59711e-06
1.59588e-06
1.59723e-06
1.59748e-06
1.58008e-06
1.57998e-06
1.57984e-06
1.57809e-06
1.57797e-06
1.57795e-06
1.57802e-06
1.57963e-06
1.57991e-06
1.57984e-06
1.57769e-06
1.57458e-06
1.57458e-06
1.57458e-06
1.57458e-06
1.57751e-06
1.57822e-06
1.57809e-06
1.57458e-06
1.57458e-06
1.57458e-06
1.57458e-06
1.57458e-06
1.57458e-06
1.57791e-06
1.57984e-06
1.58008e-06
1.57797e-06
1.57458e-06
1.57458e-06
1.57459e-06
1.57459e-06
1.57458e-06
1.57458e-06
1.57772e-06
1.57956e-06
1.57996e-06
1.57795e-06
1.57459e-06
1.57459e-06
1.57459e-06
1.57459e-06
1.57459e-06
1.57459e-06
1.57767e-06
1.57832e-06
1.57803e-06
1.57459e-06
1.57459e-06
1.57459e-06
1.57459e-06
1.57459e-06
1.57458e-06
1.5778e-06
1.57967e-06
1.57963e-06
1.57752e-06
1.57459e-06
1.57459e-06
1.57459e-06
1.57459e-06
1.57723e-06
1.57808e-06
1.57992e-06
1.57992e-06
1.57822e-06
1.57791e-06
1.57773e-06
1.57768e-06
1.5778e-06
1.57809e-06
1.57951e-06
1.57984e-06
1.57956e-06
1.57833e-06
1.57968e-06
1.57993e-06
1.56253e-06
1.56243e-06
1.56229e-06
1.56054e-06
1.56042e-06
1.5604e-06
1.56047e-06
1.56207e-06
1.56236e-06
1.56229e-06
1.56014e-06
1.55703e-06
1.55703e-06
1.55703e-06
1.55703e-06
1.55996e-06
1.56066e-06
1.56054e-06
1.55703e-06
1.55703e-06
1.55703e-06
1.55703e-06
1.55703e-06
1.55703e-06
1.56035e-06
1.56229e-06
1.56253e-06
1.56042e-06
1.55703e-06
1.55703e-06
1.55703e-06
1.55703e-06
1.55703e-06
1.55703e-06
1.56017e-06
1.56201e-06
1.56242e-06
1.5604e-06
1.55703e-06
1.55703e-06
1.55703e-06
1.55703e-06
1.55703e-06
1.55703e-06
1.56012e-06
1.56077e-06
1.56047e-06
1.55703e-06
1.55703e-06
1.55703e-06
1.55703e-06
1.55703e-06
1.55703e-06
1.56024e-06
1.56212e-06
1.56207e-06
1.55996e-06
1.55703e-06
1.55703e-06
1.55703e-06
1.55703e-06
1.55967e-06
1.56052e-06
1.56237e-06
1.56236e-06
1.56067e-06
1.56035e-06
1.56017e-06
1.56012e-06
1.56024e-06
1.56053e-06
1.56196e-06
1.56229e-06
1.56201e-06
1.56077e-06
1.56212e-06
1.56237e-06
1.54498e-06
1.54487e-06
1.54473e-06
1.54299e-06
1.54286e-06
1.54285e-06
1.54292e-06
1.54452e-06
1.54481e-06
1.54473e-06
1.54259e-06
1.53947e-06
1.53947e-06
1.53947e-06
1.53947e-06
1.5424e-06
1.54311e-06
1.54299e-06
1.53947e-06
1.53947e-06
1.53947e-06
1.53947e-06
1.53947e-06
1.53947e-06
1.5428e-06
1.54473e-06
1.54498e-06
1.54286e-06
1.53947e-06
1.53947e-06
1.53947e-06
1.53947e-06
1.53947e-06
1.53947e-06
1.54262e-06
1.54445e-06
1.54486e-06
1.54285e-06
1.53947e-06
1.53947e-06
1.53947e-06
1.53947e-06
1.53947e-06
1.53947e-06
1.54257e-06
1.54321e-06
1.54291e-06
1.53947e-06
1.53947e-06
1.53947e-06
1.53947e-06
1.53947e-06
1.53947e-06
1.54269e-06
1.54457e-06
1.54452e-06
1.5424e-06
1.53947e-06
1.53947e-06
1.53947e-06
1.53947e-06
1.54212e-06
1.54297e-06
1.54482e-06
1.5448e-06
1.54311e-06
1.5428e-06
1.54262e-06
1.54257e-06
1.54269e-06
1.54298e-06
1.5444e-06
1.54473e-06
1.54445e-06
1.54321e-06
1.54457e-06
1.54482e-06
1.52742e-06
1.52732e-06
1.52718e-06
1.52543e-06
1.52531e-06
1.52529e-06
1.52536e-06
1.52696e-06
1.52725e-06
1.52718e-06
1.52503e-06
1.52192e-06
1.52192e-06
1.52192e-06
1.52192e-06
1.52485e-06
1.52556e-06
1.52543e-06
1.52192e-06
1.52192e-06
1.52192e-06
1.52192e-06
1.52192e-06
1.52192e-06
1.52524e-06
1.52718e-06
1.52743e-06
1.52531e-06
1.52192e-06
1.52192e-06
1.52192e-06
1.52192e-06
1.52192e-06
1.52192e-06
1.52506e-06
1.5269e-06
1.5273e-06
1.52529e-06
1.52192e-06
1.52192e-06
1.52192e-06
1.52192e-06
1.52192e-06
1.52192e-06
1.52501e-06
1.52566e-06
1.52536e-06
1.52192e-06
1.52192e-06
1.52192e-06
1.52192e-06
1.52192e-06
1.52192e-06
1.52513e-06
1.52701e-06
1.52696e-06
1.52485e-06
1.52192e-06
1.52192e-06
1.52192e-06
1.52192e-06
1.52456e-06
1.52541e-06
1.52726e-06
1.52725e-06
1.52555e-06
1.52524e-06
1.52506e-06
1.52501e-06
1.52513e-06
1.52542e-06
1.52685e-06
1.52718e-06
1.5269e-06
1.52566e-06
1.52701e-06
1.52726e-06
1.50987e-06
1.50977e-06
1.50962e-06
1.50788e-06
1.50775e-06
1.50774e-06
1.50781e-06
1.50941e-06
1.5097e-06
1.50963e-06
1.50748e-06
1.50437e-06
1.50437e-06
1.50437e-06
1.50437e-06
1.5073e-06
1.508e-06
1.50788e-06
1.50437e-06
1.50437e-06
1.50437e-06
1.50437e-06
1.50437e-06
1.50437e-06
1.50769e-06
1.50963e-06
1.50986e-06
1.50775e-06
1.50437e-06
1.50437e-06
1.50437e-06
1.50437e-06
1.50437e-06
1.50437e-06
1.50751e-06
1.50934e-06
1.50975e-06
1.50774e-06
1.50437e-06
1.50437e-06
1.50437e-06
1.50437e-06
1.50437e-06
1.50437e-06
1.50746e-06
1.50811e-06
1.5078e-06
1.50436e-06
1.50436e-06
1.50437e-06
1.50437e-06
1.50437e-06
1.50437e-06
1.50758e-06
1.50946e-06
1.50941e-06
1.50729e-06
1.50436e-06
1.50436e-06
1.50437e-06
1.50437e-06
1.50701e-06
1.50786e-06
1.50971e-06
1.50969e-06
1.508e-06
1.50769e-06
1.50751e-06
1.50746e-06
1.50758e-06
1.50787e-06
1.50929e-06
1.50962e-06
1.50934e-06
1.50811e-06
1.50946e-06
1.50971e-06
1.49231e-06
1.49221e-06
1.49207e-06
1.49032e-06
1.4902e-06
1.49018e-06
1.49025e-06
1.49185e-06
1.49214e-06
1.49207e-06
1.48992e-06
1.48681e-06
1.48681e-06
1.48681e-06
1.48681e-06
1.48974e-06
1.49045e-06
1.49032e-06
1.48681e-06
1.48681e-06
1.48681e-06
1.48681e-06
1.48681e-06
1.48681e-06
1.49014e-06
1.49207e-06
1.49231e-06
1.4902e-06
1.48681e-06
1.48681e-06
1.48681e-06
1.48681e-06
1.48681e-06
1.48681e-06
1.48995e-06
1.49179e-06
1.49221e-06
1.49018e-06
1.48681e-06
1.48681e-06
1.48681e-06
1.48681e-06
1.48681e-06
1.48681e-06
1.4899e-06
1.49055e-06
1.49025e-06
1.48681e-06
1.48681e-06
1.48681e-06
1.48681e-06
1.48681e-06
1.48681e-06
1.49002e-06
1.4919e-06
1.49185e-06
1.48974e-06
1.48681e-06
1.48681e-06
1.48681e-06
1.48681e-06
1.48945e-06
1.49031e-06
1.49215e-06
1.49214e-06
1.49045e-06
1.49014e-06
1.48995e-06
1.4899e-06
1.49003e-06
1.49032e-06
1.49174e-06
1.49207e-06
1.49179e-06
1.49055e-06
1.4919e-06
1.49216e-06
1.47476e-06
1.47466e-06
1.47451e-06
1.47277e-06
1.47264e-06
1.47263e-06
1.4727e-06
1.4743e-06
1.47459e-06
1.47452e-06
1.47237e-06
1.46926e-06
1.46926e-06
1.46926e-06
1.46926e-06
1.47219e-06
1.47289e-06
1.47277e-06
1.46926e-06
1.46926e-06
1.46926e-06
1.46926e-06
1.46926e-06
1.46926e-06
1.47258e-06
1.47452e-06
1.47476e-06
1.47264e-06
1.46926e-06
1.46926e-06
1.46926e-06
1.46926e-06
1.46926e-06
1.46926e-06
1.4724e-06
1.47423e-06
1.47465e-06
1.47263e-06
1.46926e-06
1.46926e-06
1.46926e-06
1.46926e-06
1.46926e-06
1.46926e-06
1.47235e-06
1.473e-06
1.4727e-06
1.46926e-06
1.46926e-06
1.46926e-06
1.46926e-06
1.46926e-06
1.46926e-06
1.47247e-06
1.47435e-06
1.4743e-06
1.47219e-06
1.46926e-06
1.46926e-06
1.46926e-06
1.46926e-06
1.4719e-06
1.47275e-06
1.4746e-06
1.47459e-06
1.47289e-06
1.47258e-06
1.4724e-06
1.47235e-06
1.47247e-06
1.47276e-06
1.47418e-06
1.47452e-06
1.47424e-06
1.473e-06
1.47435e-06
1.4746e-06
1.4572e-06
1.4571e-06
1.45696e-06
1.45521e-06
1.45509e-06
1.45507e-06
1.45514e-06
1.45675e-06
1.45703e-06
1.45696e-06
1.45481e-06
1.4517e-06
1.4517e-06
1.4517e-06
1.4517e-06
1.45463e-06
1.45534e-06
1.45521e-06
1.4517e-06
1.4517e-06
1.4517e-06
1.4517e-06
1.4517e-06
1.4517e-06
1.45503e-06
1.45696e-06
1.4572e-06
1.45509e-06
1.4517e-06
1.4517e-06
1.4517e-06
1.4517e-06
1.4517e-06
1.4517e-06
1.45484e-06
1.45668e-06
1.45708e-06
1.45507e-06
1.4517e-06
1.4517e-06
1.4517e-06
1.4517e-06
1.4517e-06
1.4517e-06
1.4548e-06
1.45544e-06
1.45515e-06
1.4517e-06
1.4517e-06
1.4517e-06
1.4517e-06
1.4517e-06
1.4517e-06
1.45492e-06
1.45679e-06
1.45675e-06
1.45464e-06
1.4517e-06
1.4517e-06
1.4517e-06
1.4517e-06
1.45435e-06
1.4552e-06
1.45705e-06
1.45704e-06
1.45534e-06
1.45503e-06
1.45485e-06
1.4548e-06
1.45492e-06
1.45521e-06
1.45663e-06
1.45696e-06
1.45668e-06
1.45544e-06
1.4568e-06
1.45705e-06
1.43965e-06
1.43955e-06
1.4394e-06
1.43766e-06
1.43753e-06
1.43752e-06
1.43759e-06
1.43919e-06
1.43948e-06
1.43941e-06
1.43726e-06
1.43415e-06
1.43415e-06
1.43415e-06
1.43415e-06
1.43708e-06
1.43779e-06
1.43766e-06
1.43415e-06
1.43415e-06
1.43415e-06
1.43415e-06
1.43415e-06
1.43415e-06
1.43747e-06
1.43941e-06
1.43965e-06
1.43753e-06
1.43415e-06
1.43415e-06
1.43415e-06
1.43415e-06
1.43415e-06
1.43415e-06
1.43729e-06
1.43913e-06
1.43954e-06
1.43752e-06
1.43415e-06
1.43415e-06
1.43415e-06
1.43415e-06
1.43415e-06
1.43415e-06
1.43724e-06
1.43789e-06
1.43759e-06
1.43415e-06
1.43415e-06
1.43415e-06
1.43415e-06
1.43415e-06
1.43415e-06
1.43736e-06
1.43924e-06
1.43919e-06
1.43708e-06
1.43415e-06
1.43415e-06
1.43415e-06
1.43415e-06
1.43679e-06
1.43764e-06
1.43949e-06
1.43948e-06
1.43779e-06
1.43748e-06
1.43729e-06
1.43724e-06
1.43737e-06
1.43765e-06
1.43908e-06
1.43941e-06
1.43913e-06
1.43789e-06
1.43924e-06
1.43949e-06
1.4221e-06
1.422e-06
1.42185e-06
1.42011e-06
1.41998e-06
1.41997e-06
1.42004e-06
1.42164e-06
1.42193e-06
1.42185e-06
1.41971e-06
1.4166e-06
1.41659e-06
1.4166e-06
1.4166e-06
1.41953e-06
1.42023e-06
1.42011e-06
1.41659e-06
1.4166e-06
1.4166e-06
1.4166e-06
1.4166e-06
1.4166e-06
1.41992e-06
1.42185e-06
1.4221e-06
1.41998e-06
1.41659e-06
1.4166e-06
1.4166e-06
1.4166e-06
1.4166e-06
1.4166e-06
1.41974e-06
1.42157e-06
1.42199e-06
1.41997e-06
1.41659e-06
1.4166e-06
1.4166e-06
1.4166e-06
1.4166e-06
1.4166e-06
1.41969e-06
1.42034e-06
1.42004e-06
1.41659e-06
1.4166e-06
1.4166e-06
1.4166e-06
1.4166e-06
1.4166e-06
1.41981e-06
1.42169e-06
1.42164e-06
1.41953e-06
1.4166e-06
1.4166e-06
1.4166e-06
1.4166e-06
1.41924e-06
1.42009e-06
1.42194e-06
1.42193e-06
1.42023e-06
1.41992e-06
1.41974e-06
1.41969e-06
1.41981e-06
1.4201e-06
1.42152e-06
1.42186e-06
1.42157e-06
1.42034e-06
1.42169e-06
1.42194e-06
1.40454e-06
1.40444e-06
1.4043e-06
1.40255e-06
1.40243e-06
1.40241e-06
1.40248e-06
1.40408e-06
1.40437e-06
1.4043e-06
1.40215e-06
1.39904e-06
1.39904e-06
1.39904e-06
1.39904e-06
1.40197e-06
1.40268e-06
1.40255e-06
1.39904e-06
1.39904e-06
1.39904e-06
1.39904e-06
1.39904e-06
1.39904e-06
1.40237e-06
1.4043e-06
1.40454e-06
1.40243e-06
1.39904e-06
1.39904e-06
1.39904e-06
1.39904e-06
1.39904e-06
1.39904e-06
1.40218e-06
1.40402e-06
1.40444e-06
1.40241e-06
1.39904e-06
1.39904e-06
1.39904e-06
1.39904e-06
1.39904e-06
1.39904e-06
1.40213e-06
1.40278e-06
1.40248e-06
1.39904e-06
1.39904e-06
1.39904e-06
1.39904e-06
1.39904e-06
1.39904e-06
1.40226e-06
1.40413e-06
1.40408e-06
1.40197e-06
1.39904e-06
1.39904e-06
1.39904e-06
1.39904e-06
1.40169e-06
1.40254e-06
1.40438e-06
1.40437e-06
1.40268e-06
1.40237e-06
1.40218e-06
1.40213e-06
1.40226e-06
1.40255e-06
1.40397e-06
1.4043e-06
1.40402e-06
1.40278e-06
1.40413e-06
1.40439e-06
1.38699e-06
1.38689e-06
1.38674e-06
1.385e-06
1.38487e-06
1.38486e-06
1.38493e-06
1.38653e-06
1.38682e-06
1.38675e-06
1.3846e-06
1.38149e-06
1.38149e-06
1.38149e-06
1.38149e-06
1.38442e-06
1.38513e-06
1.385e-06
1.38149e-06
1.38149e-06
1.38149e-06
1.38149e-06
1.38149e-06
1.38149e-06
1.38481e-06
1.38675e-06
1.38699e-06
1.38487e-06
1.38149e-06
1.38149e-06
1.38149e-06
1.38149e-06
1.38149e-06
1.38149e-06
1.38463e-06
1.38647e-06
1.38689e-06
1.38486e-06
1.38149e-06
1.38149e-06
1.38149e-06
1.38149e-06
1.38149e-06
1.38149e-06
1.38458e-06
1.38523e-06
1.38493e-06
1.38149e-06
1.38149e-06
1.38149e-06
1.38149e-06
1.38149e-06
1.38149e-06
1.3847e-06
1.38658e-06
1.38653e-06
1.38442e-06
1.38149e-06
1.38149e-06
1.38149e-06
1.38149e-06
1.38413e-06
1.38498e-06
1.38683e-06
1.38682e-06
1.38512e-06
1.38481e-06
1.38463e-06
1.38458e-06
1.38471e-06
1.385e-06
1.38642e-06
1.38675e-06
1.38647e-06
1.38523e-06
1.38658e-06
1.38684e-06
1.36944e-06
1.36933e-06
1.36919e-06
1.36745e-06
1.36732e-06
1.36731e-06
1.36738e-06
1.36898e-06
1.36927e-06
1.36919e-06
1.36705e-06
1.36393e-06
1.36393e-06
1.36393e-06
1.36393e-06
1.36687e-06
1.36757e-06
1.36745e-06
1.36393e-06
1.36393e-06
1.36393e-06
1.36393e-06
1.36393e-06
1.36393e-06
1.36726e-06
1.36919e-06
1.36944e-06
1.36732e-06
1.36393e-06
1.36393e-06
1.36393e-06
1.36393e-06
1.36393e-06
1.36393e-06
1.36708e-06
1.36891e-06
1.36933e-06
1.36731e-06
1.36393e-06
1.36393e-06
1.36393e-06
1.36393e-06
1.36393e-06
1.36393e-06
1.36703e-06
1.36767e-06
1.36737e-06
1.36393e-06
1.36393e-06
1.36393e-06
1.36393e-06
1.36393e-06
1.36393e-06
1.36715e-06
1.36903e-06
1.36898e-06
1.36686e-06
1.36393e-06
1.36393e-06
1.36393e-06
1.36393e-06
1.36658e-06
1.36743e-06
1.36928e-06
1.36926e-06
1.36757e-06
1.36726e-06
1.36708e-06
1.36703e-06
1.36715e-06
1.36744e-06
1.36886e-06
1.36919e-06
1.36891e-06
1.36767e-06
1.36903e-06
1.36928e-06
1.35188e-06
1.35178e-06
1.35164e-06
1.34989e-06
1.34977e-06
1.34975e-06
1.34982e-06
1.35142e-06
1.35171e-06
1.35164e-06
1.34949e-06
1.34638e-06
1.34638e-06
1.34638e-06
1.34638e-06
1.34931e-06
1.35002e-06
1.34989e-06
1.34638e-06
1.34638e-06
1.34638e-06
1.34638e-06
1.34638e-06
1.34638e-06
1.34971e-06
1.35164e-06
1.35188e-06
1.34977e-06
1.34638e-06
1.34638e-06
1.34638e-06
1.34638e-06
1.34638e-06
1.34638e-06
1.34952e-06
1.35136e-06
1.35177e-06
1.34975e-06
1.34638e-06
1.34638e-06
1.34638e-06
1.34638e-06
1.34638e-06
1.34638e-06
1.34947e-06
1.35012e-06
1.34982e-06
1.34638e-06
1.34638e-06
1.34638e-06
1.34638e-06
1.34638e-06
1.34638e-06
1.34959e-06
1.35147e-06
1.35142e-06
1.34931e-06
1.34638e-06
1.34638e-06
1.34638e-06
1.34638e-06
1.34902e-06
1.34987e-06
1.35172e-06
1.35171e-06
1.35002e-06
1.34971e-06
1.34952e-06
1.34947e-06
1.3496e-06
1.34988e-06
1.35131e-06
1.35164e-06
1.35136e-06
1.35012e-06
1.35147e-06
1.35172e-06
1.33433e-06
1.33423e-06
1.33408e-06
1.33234e-06
1.33221e-06
1.3322e-06
1.33227e-06
1.33387e-06
1.33416e-06
1.33409e-06
1.33194e-06
1.32883e-06
1.32883e-06
1.32883e-06
1.32883e-06
1.33176e-06
1.33246e-06
1.33234e-06
1.32883e-06
1.32883e-06
1.32883e-06
1.32883e-06
1.32883e-06
1.32883e-06
1.33215e-06
1.33409e-06
1.33433e-06
1.33221e-06
1.32883e-06
1.32883e-06
1.32883e-06
1.32883e-06
1.32883e-06
1.32883e-06
1.33197e-06
1.3338e-06
1.33422e-06
1.3322e-06
1.32883e-06
1.32883e-06
1.32883e-06
1.32883e-06
1.32883e-06
1.32883e-06
1.33192e-06
1.33257e-06
1.33227e-06
1.32883e-06
1.32883e-06
1.32883e-06
1.32883e-06
1.32883e-06
1.32883e-06
1.33204e-06
1.33392e-06
1.33387e-06
1.33176e-06
1.32883e-06
1.32883e-06
1.32883e-06
1.32883e-06
1.33147e-06
1.33232e-06
1.33417e-06
1.33416e-06
1.33246e-06
1.33215e-06
1.33197e-06
1.33192e-06
1.33204e-06
1.33233e-06
1.33375e-06
1.33409e-06
1.33381e-06
1.33257e-06
1.33392e-06
1.33417e-06
1.31677e-06
1.31667e-06
1.31653e-06
1.31478e-06
1.31466e-06
1.31464e-06
1.31471e-06
1.31632e-06
1.3166e-06
1.31653e-06
1.31438e-06
1.31127e-06
1.31127e-06
1.31127e-06
1.31127e-06
1.3142e-06
1.31491e-06
1.31478e-06
1.31127e-06
1.31127e-06
1.31127e-06
1.31127e-06
1.31127e-06
1.31127e-06
1.3146e-06
1.31653e-06
1.31677e-06
1.31466e-06
1.31127e-06
1.31127e-06
1.31127e-06
1.31127e-06
1.31127e-06
1.31127e-06
1.31441e-06
1.31625e-06
1.31667e-06
1.31464e-06
1.31127e-06
1.31127e-06
1.31127e-06
1.31127e-06
1.31127e-06
1.31127e-06
1.31437e-06
1.31501e-06
1.31471e-06
1.31127e-06
1.31127e-06
1.31127e-06
1.31127e-06
1.31127e-06
1.31127e-06
1.31449e-06
1.31636e-06
1.31632e-06
1.3142e-06
1.31127e-06
1.31127e-06
1.31127e-06
1.31127e-06
1.31392e-06
1.31477e-06
1.31661e-06
1.3166e-06
1.31491e-06
1.3146e-06
1.31441e-06
1.31437e-06
1.31449e-06
1.31478e-06
1.3162e-06
1.31653e-06
1.31625e-06
1.31501e-06
1.31637e-06
1.31662e-06
1.29922e-06
1.29912e-06
1.29898e-06
1.29723e-06
1.29711e-06
1.29709e-06
1.29716e-06
1.29876e-06
1.29905e-06
1.29898e-06
1.29683e-06
1.29372e-06
1.29372e-06
1.29372e-06
1.29372e-06
1.29665e-06
1.29736e-06
1.29723e-06
1.29372e-06
1.29372e-06
1.29372e-06
1.29372e-06
1.29372e-06
1.29372e-06
1.29704e-06
1.29898e-06
1.29922e-06
1.29711e-06
1.29372e-06
1.29372e-06
1.29372e-06
1.29372e-06
1.29372e-06
1.29372e-06
1.29686e-06
1.2987e-06
1.29912e-06
1.29709e-06
1.29372e-06
1.29372e-06
1.29372e-06
1.29372e-06
1.29372e-06
1.29372e-06
1.29681e-06
1.29746e-06
1.29716e-06
1.29372e-06
1.29372e-06
1.29372e-06
1.29372e-06
1.29372e-06
1.29372e-06
1.29693e-06
1.29881e-06
1.29876e-06
1.29665e-06
1.29372e-06
1.29372e-06
1.29372e-06
1.29372e-06
1.29636e-06
1.29721e-06
1.29906e-06
1.29905e-06
1.29736e-06
1.29704e-06
1.29686e-06
1.29681e-06
1.29694e-06
1.29723e-06
1.29865e-06
1.29898e-06
1.2987e-06
1.29746e-06
1.29881e-06
1.29906e-06
1.28167e-06
1.28156e-06
1.28142e-06
1.27968e-06
1.27955e-06
1.27954e-06
1.27961e-06
1.28121e-06
1.2815e-06
1.28143e-06
1.27928e-06
1.27617e-06
1.27617e-06
1.27617e-06
1.27617e-06
1.2791e-06
1.2798e-06
1.27968e-06
1.27617e-06
1.27617e-06
1.27617e-06
1.27617e-06
1.27617e-06
1.27617e-06
1.27949e-06
1.28143e-06
1.28167e-06
1.27955e-06
1.27617e-06
1.27617e-06
1.27617e-06
1.27617e-06
1.27617e-06
1.27617e-06
1.27931e-06
1.28114e-06
1.28157e-06
1.27954e-06
1.27617e-06
1.27617e-06
1.27617e-06
1.27617e-06
1.27617e-06
1.27617e-06
1.27926e-06
1.27991e-06
1.27961e-06
1.27617e-06
1.27617e-06
1.27617e-06
1.27617e-06
1.27617e-06
1.27617e-06
1.27938e-06
1.28126e-06
1.28121e-06
1.2791e-06
1.27617e-06
1.27617e-06
1.27617e-06
1.27617e-06
1.27881e-06
1.27966e-06
1.28151e-06
1.2815e-06
1.2798e-06
1.27949e-06
1.27931e-06
1.27926e-06
1.27938e-06
1.27967e-06
1.28109e-06
1.28143e-06
1.28114e-06
1.27991e-06
1.28126e-06
1.28151e-06
1.26412e-06
1.26401e-06
1.26387e-06
1.26213e-06
1.262e-06
1.26199e-06
1.26205e-06
1.26366e-06
1.26394e-06
1.26387e-06
1.26172e-06
1.25861e-06
1.25861e-06
1.25861e-06
1.25861e-06
1.26154e-06
1.26225e-06
1.26213e-06
1.25861e-06
1.25861e-06
1.25861e-06
1.25861e-06
1.25861e-06
1.25861e-06
1.26194e-06
1.26387e-06
1.26412e-06
1.262e-06
1.25861e-06
1.25861e-06
1.25861e-06
1.25861e-06
1.25861e-06
1.25861e-06
1.26175e-06
1.26359e-06
1.26401e-06
1.26198e-06
1.25861e-06
1.25861e-06
1.25861e-06
1.25861e-06
1.25861e-06
1.25861e-06
1.2617e-06
1.26235e-06
1.26206e-06
1.25861e-06
1.25861e-06
1.25861e-06
1.25861e-06
1.25861e-06
1.25861e-06
1.26183e-06
1.2637e-06
1.26366e-06
1.26154e-06
1.25861e-06
1.25861e-06
1.25861e-06
1.25861e-06
1.26126e-06
1.26211e-06
1.26395e-06
1.26395e-06
1.26225e-06
1.26194e-06
1.26176e-06
1.26171e-06
1.26183e-06
1.26212e-06
1.26354e-06
1.26388e-06
1.26359e-06
1.26236e-06
1.2637e-06
1.26395e-06
1.24656e-06
1.24646e-06
1.24632e-06
1.24457e-06
1.24445e-06
1.24443e-06
1.2445e-06
1.2461e-06
1.24639e-06
1.24632e-06
1.24417e-06
1.24106e-06
1.24106e-06
1.24106e-06
1.24106e-06
1.24399e-06
1.2447e-06
1.24457e-06
1.24106e-06
1.24106e-06
1.24106e-06
1.24106e-06
1.24106e-06
1.24106e-06
1.24439e-06
1.24632e-06
1.24656e-06
1.24445e-06
1.24106e-06
1.24106e-06
1.24106e-06
1.24106e-06
1.24106e-06
1.24106e-06
1.2442e-06
1.24604e-06
1.24646e-06
1.24443e-06
1.24106e-06
1.24106e-06
1.24106e-06
1.24106e-06
1.24106e-06
1.24106e-06
1.24415e-06
1.2448e-06
1.2445e-06
1.24106e-06
1.24106e-06
1.24106e-06
1.24106e-06
1.24106e-06
1.24106e-06
1.24427e-06
1.24615e-06
1.2461e-06
1.24399e-06
1.24106e-06
1.24106e-06
1.24106e-06
1.24106e-06
1.2437e-06
1.24455e-06
1.2464e-06
1.24639e-06
1.2447e-06
1.24439e-06
1.2442e-06
1.24415e-06
1.24428e-06
1.24456e-06
1.24599e-06
1.24632e-06
1.24604e-06
1.2448e-06
1.24615e-06
1.2464e-06
1.22901e-06
1.22891e-06
1.22876e-06
1.22702e-06
1.22689e-06
1.22688e-06
1.22695e-06
1.22855e-06
1.22884e-06
1.22877e-06
1.22662e-06
1.22351e-06
1.22351e-06
1.22351e-06
1.22351e-06
1.22644e-06
1.22714e-06
1.22702e-06
1.22351e-06
1.22351e-06
1.22351e-06
1.22351e-06
1.22351e-06
1.22351e-06
1.22683e-06
1.22877e-06
1.22901e-06
1.22689e-06
1.22351e-06
1.22351e-06
1.22351e-06
1.22351e-06
1.22351e-06
1.22351e-06
1.22665e-06
1.22848e-06
1.22891e-06
1.22688e-06
1.22351e-06
1.22351e-06
1.22351e-06
1.22351e-06
1.22351e-06
1.22351e-06
1.2266e-06
1.22725e-06
1.22695e-06
1.22351e-06
1.22351e-06
1.22351e-06
1.22351e-06
1.22351e-06
1.22351e-06
1.22672e-06
1.2286e-06
1.22855e-06
1.22644e-06
1.22351e-06
1.22351e-06
1.22351e-06
1.22351e-06
1.22615e-06
1.227e-06
1.22885e-06
1.22884e-06
1.22714e-06
1.22683e-06
1.22665e-06
1.2266e-06
1.22672e-06
1.22701e-06
1.22843e-06
1.22877e-06
1.22848e-06
1.22725e-06
1.2286e-06
1.22885e-06
1.21146e-06
1.21135e-06
1.21121e-06
1.20947e-06
1.20934e-06
1.20933e-06
1.2094e-06
1.211e-06
1.21129e-06
1.21121e-06
1.20907e-06
1.20595e-06
1.20595e-06
1.20595e-06
1.20595e-06
1.20888e-06
1.20959e-06
1.20947e-06
1.20595e-06
1.20595e-06
1.20595e-06
1.20595e-06
1.20595e-06
1.20595e-06
1.20928e-06
1.21121e-06
1.21145e-06
1.20934e-06
1.20595e-06
1.20595e-06
1.20595e-06
1.20595e-06
1.20595e-06
1.20595e-06
1.2091e-06
1.21093e-06
1.21134e-06
1.20933e-06
1.20595e-06
1.20595e-06
1.20595e-06
1.20595e-06
1.20595e-06
1.20595e-06
1.20905e-06
1.20969e-06
1.20939e-06
1.20595e-06
1.20595e-06
1.20595e-06
1.20595e-06
1.20595e-06
1.20595e-06
1.20917e-06
1.21105e-06
1.211e-06
1.20888e-06
1.20595e-06
1.20595e-06
1.20595e-06
1.20595e-06
1.2086e-06
1.20945e-06
1.2113e-06
1.21128e-06
1.20959e-06
1.20928e-06
1.2091e-06
1.20905e-06
1.20917e-06
1.20946e-06
1.21088e-06
1.21121e-06
1.21093e-06
1.20969e-06
1.21105e-06
1.2113e-06
1.1939e-06
1.1938e-06
1.19366e-06
1.19191e-06
1.19179e-06
1.19177e-06
1.19184e-06
1.19344e-06
1.19373e-06
1.19366e-06
1.19151e-06
1.1884e-06
1.1884e-06
1.1884e-06
1.1884e-06
1.19133e-06
1.19204e-06
1.19191e-06
1.1884e-06
1.1884e-06
1.1884e-06
1.1884e-06
1.1884e-06
1.1884e-06
1.19173e-06
1.19366e-06
1.19391e-06
1.19179e-06
1.1884e-06
1.1884e-06
1.1884e-06
1.1884e-06
1.1884e-06
1.1884e-06
1.19154e-06
1.19338e-06
1.19378e-06
1.19177e-06
1.1884e-06
1.1884e-06
1.1884e-06
1.1884e-06
1.1884e-06
1.1884e-06
1.19149e-06
1.19214e-06
1.19184e-06
1.1884e-06
1.1884e-06
1.1884e-06
1.1884e-06
1.1884e-06
1.1884e-06
1.19161e-06
1.19349e-06
1.19344e-06
1.19133e-06
1.1884e-06
1.1884e-06
1.1884e-06
1.1884e-06
1.19104e-06
1.19189e-06
1.19374e-06
1.19373e-06
1.19203e-06
1.19172e-06
1.19154e-06
1.19149e-06
1.19162e-06
1.1919e-06
1.19333e-06
1.19366e-06
1.19338e-06
1.19214e-06
1.19349e-06
1.19374e-06
1.17635e-06
1.17625e-06
1.1761e-06
1.17436e-06
1.17423e-06
1.17422e-06
1.17429e-06
1.17589e-06
1.17618e-06
1.17611e-06
1.17396e-06
1.17085e-06
1.17085e-06
1.17085e-06
1.17085e-06
1.17378e-06
1.17448e-06
1.17436e-06
1.17085e-06
1.17085e-06
1.17085e-06
1.17085e-06
1.17085e-06
1.17085e-06
1.17417e-06
1.17611e-06
1.17635e-06
1.17424e-06
1.17085e-06
1.17085e-06
1.17085e-06
1.17085e-06
1.17085e-06
1.17085e-06
1.17399e-06
1.17582e-06
1.17623e-06
1.17422e-06
1.17085e-06
1.17085e-06
1.17085e-06
1.17085e-06
1.17085e-06
1.17085e-06
1.17394e-06
1.17459e-06
1.17428e-06
1.17085e-06
1.17085e-06
1.17085e-06
1.17085e-06
1.17085e-06
1.17085e-06
1.17406e-06
1.17594e-06
1.17589e-06
1.17378e-06
1.17085e-06
1.17085e-06
1.17085e-06
1.17085e-06
1.17349e-06
1.17434e-06
1.17619e-06
1.17618e-06
1.17448e-06
1.17417e-06
1.17399e-06
1.17394e-06
1.17406e-06
1.17435e-06
1.17577e-06
1.17611e-06
1.17582e-06
1.17459e-06
1.17594e-06
1.17619e-06
1.15879e-06
1.15869e-06
1.15855e-06
1.1568e-06
1.15668e-06
1.15666e-06
1.15673e-06
1.15834e-06
1.15862e-06
1.15855e-06
1.1564e-06
1.15329e-06
1.15329e-06
1.15329e-06
1.15329e-06
1.15622e-06
1.15693e-06
1.1568e-06
1.15329e-06
1.15329e-06
1.15329e-06
1.15329e-06
1.15329e-06
1.15329e-06
1.15662e-06
1.15855e-06
1.1588e-06
1.15668e-06
1.15329e-06
1.15329e-06
1.15329e-06
1.15329e-06
1.15329e-06
1.15329e-06
1.15643e-06
1.15827e-06
1.15869e-06
1.15666e-06
1.15329e-06
1.15329e-06
1.15329e-06
1.15329e-06
1.15329e-06
1.15329e-06
1.15638e-06
1.15703e-06
1.15673e-06
1.15329e-06
1.15329e-06
1.15329e-06
1.15329e-06
1.15329e-06
1.15329e-06
1.15651e-06
1.15838e-06
1.15834e-06
1.15622e-06
1.15329e-06
1.15329e-06
1.15329e-06
1.15329e-06
1.15594e-06
1.15679e-06
1.15863e-06
1.15862e-06
1.15693e-06
1.15662e-06
1.15643e-06
1.15639e-06
1.15651e-06
1.1568e-06
1.15822e-06
1.15855e-06
1.15827e-06
1.15703e-06
1.15838e-06
1.15864e-06
1.14124e-06
1.14114e-06
1.141e-06
1.13925e-06
1.13913e-06
1.13911e-06
1.13918e-06
1.14078e-06
1.14107e-06
1.141e-06
1.13885e-06
1.13574e-06
1.13574e-06
1.13574e-06
1.13574e-06
1.13867e-06
1.13938e-06
1.13925e-06
1.13574e-06
1.13574e-06
1.13574e-06
1.13574e-06
1.13574e-06
1.13574e-06
1.13906e-06
1.141e-06
1.14124e-06
1.13913e-06
1.13574e-06
1.13574e-06
1.13574e-06
1.13574e-06
1.13574e-06
1.13574e-06
1.13888e-06
1.14072e-06
1.14114e-06
1.13911e-06
1.13574e-06
1.13574e-06
1.13574e-06
1.13574e-06
1.13574e-06
1.13574e-06
1.13883e-06
1.13948e-06
1.13918e-06
1.13574e-06
1.13574e-06
1.13574e-06
1.13574e-06
1.13574e-06
1.13574e-06
1.13895e-06
1.14083e-06
1.14078e-06
1.13867e-06
1.13574e-06
1.13574e-06
1.13574e-06
1.13574e-06
1.13838e-06
1.13923e-06
1.14108e-06
1.14107e-06
1.13937e-06
1.13906e-06