/*--------------------------------*- C++ -*----------------------------------*\
| =========                 |                                                 |
| \\      /  F ield         | OpenFOAM: The Open Source CFD Toolbox           |
|  \\    /   O peration     | Version:  v2012                                 |
|   \\  /    A nd           | Website:  www.openfoam.com                      |
|    \\/     M anipulation  |                                                 |
\*---------------------------------------------------------------------------*/
FoamFile
{
    version     2.0;
    format      ascii;
    class       volScalarField;
    location    "14";
    object      p;
}
// * * * * * * * * * * * * * * * * * * * * * * * * * * * * * * * * * * * * * //

dimensions      [0 2 -2 0 0 0 0];


internalField   nonuniform List<scalar> 
244288
(
1.49037e-06
1.49051e-06
1.49047e-06
1.49037e-06
1.49032e-06
1.49038e-06
1.49048e-06
1.49051e-06
1.49054e-06
1.49031e-06
1.49005e-06
1.48996e-06
1.49008e-06
1.49035e-06
1.49054e-06
1.49047e-06
1.49031e-06
1.4899e-06
1.48955e-06
1.48943e-06
1.48958e-06
1.48995e-06
1.49035e-06
1.49046e-06
1.49037e-06
1.49005e-06
1.48955e-06
1.48916e-06
1.48903e-06
1.4892e-06
1.48961e-06
1.49011e-06
1.49038e-06
1.49037e-06
1.49032e-06
1.48996e-06
1.48943e-06
1.48903e-06
1.48889e-06
1.48907e-06
1.48949e-06
1.49002e-06
1.49033e-06
1.49039e-06
1.49008e-06
1.48958e-06
1.4892e-06
1.48907e-06
1.48923e-06
1.48965e-06
1.49013e-06
1.49039e-06
1.49048e-06
1.49035e-06
1.48995e-06
1.48961e-06
1.48949e-06
1.48965e-06
1.49e-06
1.49038e-06
1.49046e-06
1.49054e-06
1.49035e-06
1.49011e-06
1.49002e-06
1.49013e-06
1.49038e-06
1.49055e-06
1.49046e-06
1.49038e-06
1.49033e-06
1.49039e-06
1.49046e-06
1.46777e-06
1.46742e-06
1.46725e-06
1.46583e-06
1.46574e-06
1.46574e-06
1.46576e-06
1.46719e-06
1.46731e-06
1.46725e-06
1.46538e-06
1.46295e-06
1.46295e-06
1.46295e-06
1.46295e-06
1.46543e-06
1.46593e-06
1.46583e-06
1.46295e-06
1.4629e-06
1.46294e-06
1.46294e-06
1.4629e-06
1.46295e-06
1.46584e-06
1.46745e-06
1.46777e-06
1.46574e-06
1.46295e-06
1.46294e-06
1.46299e-06
1.46299e-06
1.46294e-06
1.46295e-06
1.46578e-06
1.46718e-06
1.46742e-06
1.46574e-06
1.46295e-06
1.46294e-06
1.46299e-06
1.46299e-06
1.46294e-06
1.46295e-06
1.46574e-06
1.46606e-06
1.46576e-06
1.46295e-06
1.4629e-06
1.46294e-06
1.46294e-06
1.4629e-06
1.46295e-06
1.46581e-06
1.46733e-06
1.46719e-06
1.46543e-06
1.46295e-06
1.46295e-06
1.46295e-06
1.46295e-06
1.46539e-06
1.46594e-06
1.46747e-06
1.46731e-06
1.46593e-06
1.46584e-06
1.46578e-06
1.46574e-06
1.46581e-06
1.46594e-06
1.46716e-06
1.46745e-06
1.46717e-06
1.46605e-06
1.46734e-06
1.46747e-06
1.45213e-06
1.45201e-06
1.45191e-06
1.45038e-06
1.45029e-06
1.45026e-06
1.45034e-06
1.45182e-06
1.45201e-06
1.45191e-06
1.44993e-06
1.44733e-06
1.44733e-06
1.44733e-06
1.44733e-06
1.44998e-06
1.45056e-06
1.45038e-06
1.44733e-06
1.44731e-06
1.44731e-06
1.44731e-06
1.4473e-06
1.44733e-06
1.45045e-06
1.45208e-06
1.45213e-06
1.45029e-06
1.44733e-06
1.44731e-06
1.44732e-06
1.44732e-06
1.44731e-06
1.44733e-06
1.45038e-06
1.45182e-06
1.452e-06
1.45026e-06
1.44733e-06
1.44731e-06
1.44732e-06
1.44732e-06
1.44731e-06
1.44733e-06
1.45034e-06
1.45066e-06
1.45034e-06
1.44733e-06
1.4473e-06
1.44731e-06
1.44731e-06
1.4473e-06
1.44733e-06
1.45041e-06
1.45199e-06
1.45182e-06
1.44998e-06
1.44733e-06
1.44733e-06
1.44733e-06
1.44733e-06
1.44998e-06
1.45053e-06
1.4521e-06
1.45201e-06
1.45056e-06
1.45045e-06
1.45038e-06
1.45035e-06
1.45041e-06
1.45053e-06
1.45186e-06
1.45208e-06
1.45182e-06
1.45066e-06
1.45199e-06
1.45211e-06
1.43657e-06
1.43644e-06
1.43634e-06
1.43479e-06
1.4347e-06
1.43466e-06
1.43476e-06
1.43625e-06
1.43644e-06
1.43634e-06
1.43433e-06
1.43172e-06
1.43172e-06
1.43172e-06
1.43172e-06
1.43438e-06
1.43499e-06
1.43479e-06
1.43172e-06
1.43172e-06
1.43172e-06
1.43172e-06
1.43172e-06
1.43172e-06
1.43488e-06
1.43651e-06
1.43657e-06
1.4347e-06
1.43172e-06
1.43172e-06
1.43172e-06
1.43172e-06
1.43172e-06
1.43172e-06
1.43482e-06
1.43626e-06
1.43644e-06
1.43466e-06
1.43172e-06
1.43172e-06
1.43172e-06
1.43172e-06
1.43172e-06
1.43172e-06
1.43479e-06
1.4351e-06
1.43476e-06
1.43172e-06
1.43172e-06
1.43172e-06
1.43172e-06
1.43172e-06
1.43172e-06
1.43485e-06
1.43643e-06
1.43625e-06
1.43438e-06
1.43172e-06
1.43172e-06
1.43172e-06
1.43172e-06
1.43443e-06
1.43496e-06
1.43654e-06
1.43644e-06
1.43499e-06
1.43488e-06
1.43482e-06
1.43479e-06
1.43485e-06
1.43496e-06
1.4363e-06
1.43651e-06
1.43626e-06
1.4351e-06
1.43643e-06
1.43654e-06
1.42098e-06
1.42085e-06
1.42075e-06
1.4192e-06
1.41911e-06
1.41907e-06
1.41916e-06
1.42066e-06
1.42085e-06
1.42075e-06
1.41873e-06
1.41613e-06
1.41613e-06
1.41613e-06
1.41613e-06
1.41878e-06
1.4194e-06
1.4192e-06
1.41613e-06
1.41612e-06
1.41613e-06
1.41613e-06
1.41612e-06
1.41613e-06
1.41929e-06
1.42092e-06
1.42098e-06
1.41911e-06
1.41613e-06
1.41613e-06
1.41613e-06
1.41613e-06
1.41613e-06
1.41613e-06
1.41923e-06
1.42068e-06
1.42085e-06
1.41907e-06
1.41613e-06
1.41613e-06
1.41613e-06
1.41613e-06
1.41613e-06
1.41613e-06
1.4192e-06
1.41951e-06
1.41916e-06
1.41613e-06
1.41612e-06
1.41613e-06
1.41613e-06
1.41612e-06
1.41613e-06
1.41926e-06
1.42084e-06
1.42066e-06
1.41878e-06
1.41613e-06
1.41613e-06
1.41613e-06
1.41613e-06
1.41884e-06
1.41938e-06
1.42095e-06
1.42085e-06
1.4194e-06
1.41929e-06
1.41923e-06
1.4192e-06
1.41926e-06
1.41938e-06
1.42071e-06
1.42092e-06
1.42068e-06
1.41951e-06
1.42084e-06
1.42095e-06
1.40539e-06
1.40526e-06
1.40516e-06
1.40361e-06
1.40352e-06
1.40347e-06
1.40357e-06
1.40506e-06
1.40526e-06
1.40516e-06
1.40314e-06
1.40053e-06
1.40053e-06
1.40053e-06
1.40053e-06
1.40318e-06
1.40381e-06
1.40361e-06
1.40053e-06
1.40053e-06
1.40053e-06
1.40053e-06
1.40053e-06
1.40053e-06
1.40369e-06
1.40533e-06
1.40539e-06
1.40351e-06
1.40053e-06
1.40053e-06
1.40053e-06
1.40053e-06
1.40053e-06
1.40053e-06
1.40364e-06
1.40508e-06
1.40526e-06
1.40347e-06
1.40053e-06
1.40053e-06
1.40053e-06
1.40053e-06
1.40053e-06
1.40053e-06
1.40361e-06
1.40392e-06
1.40357e-06
1.40053e-06
1.40053e-06
1.40053e-06
1.40053e-06
1.40053e-06
1.40053e-06
1.40367e-06
1.40525e-06
1.40506e-06
1.40318e-06
1.40053e-06
1.40053e-06
1.40053e-06
1.40053e-06
1.40325e-06
1.40378e-06
1.40536e-06
1.40526e-06
1.40381e-06
1.40369e-06
1.40364e-06
1.40361e-06
1.40367e-06
1.40378e-06
1.40512e-06
1.40533e-06
1.40508e-06
1.40392e-06
1.40525e-06
1.40536e-06
1.3898e-06
1.38967e-06
1.38957e-06
1.38801e-06
1.38792e-06
1.38788e-06
1.38798e-06
1.38947e-06
1.38967e-06
1.38957e-06
1.38754e-06
1.38494e-06
1.38494e-06
1.38494e-06
1.38494e-06
1.38759e-06
1.38821e-06
1.38801e-06
1.38494e-06
1.38494e-06
1.38494e-06
1.38494e-06
1.38494e-06
1.38494e-06
1.3881e-06
1.38974e-06
1.3898e-06
1.38792e-06
1.38494e-06
1.38494e-06
1.38494e-06
1.38494e-06
1.38494e-06
1.38494e-06
1.38805e-06
1.38949e-06
1.38968e-06
1.38788e-06
1.38494e-06
1.38494e-06
1.38494e-06
1.38494e-06
1.38494e-06
1.38494e-06
1.38802e-06
1.38833e-06
1.38798e-06
1.38494e-06
1.38494e-06
1.38494e-06
1.38494e-06
1.38494e-06
1.38494e-06
1.38808e-06
1.38966e-06
1.38947e-06
1.38759e-06
1.38494e-06
1.38494e-06
1.38494e-06
1.38494e-06
1.38766e-06
1.38819e-06
1.38976e-06
1.38966e-06
1.38821e-06
1.3881e-06
1.38805e-06
1.38802e-06
1.38808e-06
1.38819e-06
1.38953e-06
1.38974e-06
1.38949e-06
1.38833e-06
1.38966e-06
1.38976e-06
1.3742e-06
1.37408e-06
1.37397e-06
1.37242e-06
1.37233e-06
1.37229e-06
1.37239e-06
1.37388e-06
1.37407e-06
1.37397e-06
1.37195e-06
1.36934e-06
1.36934e-06
1.36934e-06
1.36934e-06
1.372e-06
1.37262e-06
1.37242e-06
1.36934e-06
1.36934e-06
1.36934e-06
1.36934e-06
1.36934e-06
1.36934e-06
1.37251e-06
1.37414e-06
1.3742e-06
1.37233e-06
1.36934e-06
1.36934e-06
1.36935e-06
1.36935e-06
1.36934e-06
1.36934e-06
1.37245e-06
1.3739e-06
1.37408e-06
1.37229e-06
1.36934e-06
1.36934e-06
1.36935e-06
1.36935e-06
1.36934e-06
1.36934e-06
1.37242e-06
1.37274e-06
1.37239e-06
1.36934e-06
1.36934e-06
1.36934e-06
1.36934e-06
1.36934e-06
1.36934e-06
1.37249e-06
1.37407e-06
1.37388e-06
1.372e-06
1.36934e-06
1.36934e-06
1.36934e-06
1.36934e-06
1.37207e-06
1.3726e-06
1.37417e-06
1.37407e-06
1.37262e-06
1.37251e-06
1.37245e-06
1.37242e-06
1.37249e-06
1.3726e-06
1.37394e-06
1.37414e-06
1.3739e-06
1.37274e-06
1.37407e-06
1.37417e-06
1.35861e-06
1.35848e-06
1.35838e-06
1.35683e-06
1.35674e-06
1.35669e-06
1.35679e-06
1.35829e-06
1.35848e-06
1.35838e-06
1.35636e-06
1.35375e-06
1.35375e-06
1.35375e-06
1.35375e-06
1.3564e-06
1.35703e-06
1.35683e-06
1.35375e-06
1.35375e-06
1.35375e-06
1.35375e-06
1.35375e-06
1.35375e-06
1.35692e-06
1.35855e-06
1.35861e-06
1.35674e-06
1.35375e-06
1.35375e-06
1.35375e-06
1.35375e-06
1.35375e-06
1.35375e-06
1.35686e-06
1.35831e-06
1.35848e-06
1.35669e-06
1.35375e-06
1.35375e-06
1.35375e-06
1.35375e-06
1.35375e-06
1.35375e-06
1.35683e-06
1.35714e-06
1.35679e-06
1.35375e-06
1.35375e-06
1.35375e-06
1.35375e-06
1.35375e-06
1.35375e-06
1.35689e-06
1.35848e-06
1.35829e-06
1.3564e-06
1.35375e-06
1.35375e-06
1.35375e-06
1.35375e-06
1.35647e-06
1.35701e-06
1.35858e-06
1.35848e-06
1.35703e-06
1.35692e-06
1.35686e-06
1.35683e-06
1.35689e-06
1.35701e-06
1.35834e-06
1.35855e-06
1.35831e-06
1.35714e-06
1.35848e-06
1.35858e-06
1.34302e-06
1.34289e-06
1.34278e-06
1.34123e-06
1.34114e-06
1.3411e-06
1.3412e-06
1.34269e-06
1.34288e-06
1.34278e-06
1.34076e-06
1.33816e-06
1.33816e-06
1.33816e-06
1.33816e-06
1.34081e-06
1.34143e-06
1.34123e-06
1.33816e-06
1.33816e-06
1.33816e-06
1.33816e-06
1.33816e-06
1.33816e-06
1.34132e-06
1.34296e-06
1.34301e-06
1.34114e-06
1.33816e-06
1.33816e-06
1.33816e-06
1.33816e-06
1.33816e-06
1.33816e-06
1.34127e-06
1.34271e-06
1.34289e-06
1.3411e-06
1.33816e-06
1.33816e-06
1.33816e-06
1.33816e-06
1.33816e-06
1.33816e-06
1.34124e-06
1.34155e-06
1.3412e-06
1.33816e-06
1.33816e-06
1.33816e-06
1.33816e-06
1.33816e-06
1.33816e-06
1.3413e-06
1.34288e-06
1.34269e-06
1.34081e-06
1.33816e-06
1.33816e-06
1.33816e-06
1.33816e-06
1.34088e-06
1.34141e-06
1.34298e-06
1.34289e-06
1.34143e-06
1.34132e-06
1.34127e-06
1.34124e-06
1.3413e-06
1.34141e-06
1.34275e-06
1.34296e-06
1.34271e-06
1.34155e-06
1.34288e-06
1.34298e-06
1.32742e-06
1.3273e-06
1.32719e-06
1.32564e-06
1.32555e-06
1.32551e-06
1.3256e-06
1.3271e-06
1.32729e-06
1.32719e-06
1.32517e-06
1.32256e-06
1.32256e-06
1.32256e-06
1.32256e-06
1.32522e-06
1.32584e-06
1.32564e-06
1.32256e-06
1.32256e-06
1.32256e-06
1.32256e-06
1.32256e-06
1.32256e-06
1.32573e-06
1.32736e-06
1.32742e-06
1.32555e-06
1.32256e-06
1.32256e-06
1.32256e-06
1.32256e-06
1.32256e-06
1.32256e-06
1.32567e-06
1.32712e-06
1.32729e-06
1.32551e-06
1.32256e-06
1.32256e-06
1.32256e-06
1.32256e-06
1.32256e-06
1.32256e-06
1.32564e-06
1.32596e-06
1.3256e-06
1.32256e-06
1.32256e-06
1.32256e-06
1.32256e-06
1.32256e-06
1.32256e-06
1.3257e-06
1.32729e-06
1.3271e-06
1.32522e-06
1.32256e-06
1.32256e-06
1.32256e-06
1.32256e-06
1.32529e-06
1.32582e-06
1.32739e-06
1.32729e-06
1.32584e-06
1.32573e-06
1.32567e-06
1.32564e-06
1.3257e-06
1.32582e-06
1.32716e-06
1.32736e-06
1.32712e-06
1.32596e-06
1.32729e-06
1.32739e-06
1.31183e-06
1.3117e-06
1.3116e-06
1.31005e-06
1.30995e-06
1.30991e-06
1.31001e-06
1.3115e-06
1.3117e-06
1.3116e-06
1.30958e-06
1.30697e-06
1.30697e-06
1.30697e-06
1.30697e-06
1.30962e-06
1.31025e-06
1.31005e-06
1.30697e-06
1.30697e-06
1.30697e-06
1.30697e-06
1.30697e-06
1.30697e-06
1.31013e-06
1.31177e-06
1.31183e-06
1.30995e-06
1.30697e-06
1.30697e-06
1.30697e-06
1.30697e-06
1.30697e-06
1.30697e-06
1.31008e-06
1.31152e-06
1.3117e-06
1.30991e-06
1.30697e-06
1.30697e-06
1.30697e-06
1.30697e-06
1.30697e-06
1.30697e-06
1.31005e-06
1.31036e-06
1.31001e-06
1.30697e-06
1.30697e-06
1.30697e-06
1.30697e-06
1.30697e-06
1.30697e-06
1.31011e-06
1.31169e-06
1.3115e-06
1.30962e-06
1.30697e-06
1.30697e-06
1.30697e-06
1.30697e-06
1.30969e-06
1.31022e-06
1.3118e-06
1.3117e-06
1.31025e-06
1.31013e-06
1.31008e-06
1.31005e-06
1.31011e-06
1.31022e-06
1.31156e-06
1.31177e-06
1.31153e-06
1.31036e-06
1.31169e-06
1.3118e-06
1.29624e-06
1.29611e-06
1.29601e-06
1.29445e-06
1.29436e-06
1.29432e-06
1.29442e-06
1.29591e-06
1.2961e-06
1.296e-06
1.29398e-06
1.29138e-06
1.29138e-06
1.29138e-06
1.29138e-06
1.29403e-06
1.29465e-06
1.29445e-06
1.29138e-06
1.29138e-06
1.29138e-06
1.29138e-06
1.29138e-06
1.29138e-06
1.29454e-06
1.29618e-06
1.29624e-06
1.29436e-06
1.29138e-06
1.29138e-06
1.29138e-06
1.29138e-06
1.29138e-06
1.29138e-06
1.29449e-06
1.29593e-06
1.29611e-06
1.29432e-06
1.29138e-06
1.29138e-06
1.29138e-06
1.29138e-06
1.29138e-06
1.29138e-06
1.29446e-06
1.29477e-06
1.29442e-06
1.29138e-06
1.29138e-06
1.29138e-06
1.29138e-06
1.29138e-06
1.29138e-06
1.29452e-06
1.2961e-06
1.29591e-06
1.29403e-06
1.29138e-06
1.29138e-06
1.29138e-06
1.29138e-06
1.2941e-06
1.29463e-06
1.2962e-06
1.2961e-06
1.29465e-06
1.29454e-06
1.29449e-06
1.29446e-06
1.29452e-06
1.29463e-06
1.29597e-06
1.29618e-06
1.29593e-06
1.29477e-06
1.2961e-06
1.2962e-06
1.28064e-06
1.28052e-06
1.28041e-06
1.27886e-06
1.27877e-06
1.27873e-06
1.27883e-06
1.28032e-06
1.28051e-06
1.28041e-06
1.27839e-06
1.27579e-06
1.27579e-06
1.27579e-06
1.27579e-06
1.27844e-06
1.27906e-06
1.27886e-06
1.27579e-06
1.27579e-06
1.27579e-06
1.27579e-06
1.27579e-06
1.27579e-06
1.27895e-06
1.28058e-06
1.28065e-06
1.27877e-06
1.27579e-06
1.27579e-06
1.27579e-06
1.27579e-06
1.27579e-06
1.27579e-06
1.2789e-06
1.28034e-06
1.28053e-06
1.27873e-06
1.27579e-06
1.27579e-06
1.27579e-06
1.27579e-06
1.27579e-06
1.27579e-06
1.27886e-06
1.27918e-06
1.27882e-06
1.27578e-06
1.27578e-06
1.27579e-06
1.27579e-06
1.27579e-06
1.27579e-06
1.27893e-06
1.28051e-06
1.28032e-06
1.27844e-06
1.27578e-06
1.27578e-06
1.27579e-06
1.27579e-06
1.27851e-06
1.27904e-06
1.28061e-06
1.28051e-06
1.27906e-06
1.27895e-06
1.2789e-06
1.27886e-06
1.27893e-06
1.27904e-06
1.28038e-06
1.28058e-06
1.28034e-06
1.27918e-06
1.28051e-06
1.28061e-06
1.26505e-06
1.26492e-06
1.26482e-06
1.26327e-06
1.26318e-06
1.26314e-06
1.26323e-06
1.26473e-06
1.26492e-06
1.26482e-06
1.2628e-06
1.26019e-06
1.26019e-06
1.26019e-06
1.26019e-06
1.26285e-06
1.26347e-06
1.26327e-06
1.26019e-06
1.26019e-06
1.26019e-06
1.26019e-06
1.26019e-06
1.26019e-06
1.26336e-06
1.26499e-06
1.26505e-06
1.26318e-06
1.26019e-06
1.26019e-06
1.26019e-06
1.26019e-06
1.26019e-06
1.26019e-06
1.2633e-06
1.26475e-06
1.26493e-06
1.26313e-06
1.26019e-06
1.26019e-06
1.26019e-06
1.26019e-06
1.26019e-06
1.26019e-06
1.26327e-06
1.26359e-06
1.26323e-06
1.26019e-06
1.26019e-06
1.26019e-06
1.26019e-06
1.26019e-06
1.26019e-06
1.26333e-06
1.26492e-06
1.26473e-06
1.26285e-06
1.26019e-06
1.26019e-06
1.26019e-06
1.26019e-06
1.26291e-06
1.26345e-06
1.26502e-06
1.26492e-06
1.26347e-06
1.26336e-06
1.2633e-06
1.26327e-06
1.26333e-06
1.26345e-06
1.26479e-06
1.26499e-06
1.26475e-06
1.26359e-06
1.26492e-06
1.26502e-06
1.24946e-06
1.24933e-06
1.24923e-06
1.24768e-06
1.24758e-06
1.24754e-06
1.24764e-06
1.24913e-06
1.24933e-06
1.24923e-06
1.24721e-06
1.2446e-06
1.2446e-06
1.2446e-06
1.2446e-06
1.24725e-06
1.24787e-06
1.24768e-06
1.2446e-06
1.2446e-06
1.2446e-06
1.2446e-06
1.2446e-06
1.2446e-06
1.24776e-06
1.2494e-06
1.24946e-06
1.24758e-06
1.2446e-06
1.2446e-06
1.2446e-06
1.2446e-06
1.2446e-06
1.2446e-06
1.24771e-06
1.24915e-06
1.24933e-06
1.24754e-06
1.2446e-06
1.2446e-06
1.2446e-06
1.2446e-06
1.2446e-06
1.2446e-06
1.24768e-06
1.24799e-06
1.24764e-06
1.2446e-06
1.2446e-06
1.2446e-06
1.2446e-06
1.2446e-06
1.2446e-06
1.24774e-06
1.24932e-06
1.24913e-06
1.24725e-06
1.2446e-06
1.2446e-06
1.2446e-06
1.2446e-06
1.24732e-06
1.24785e-06
1.24942e-06
1.24933e-06
1.24787e-06
1.24776e-06
1.24771e-06
1.24768e-06
1.24774e-06
1.24785e-06
1.24919e-06
1.2494e-06
1.24915e-06
1.24799e-06
1.24932e-06
1.24942e-06
1.23387e-06
1.23374e-06
1.23363e-06
1.23208e-06
1.23199e-06
1.23195e-06
1.23205e-06
1.23354e-06
1.23373e-06
1.23363e-06
1.23161e-06
1.22901e-06
1.22901e-06
1.22901e-06
1.22901e-06
1.23166e-06
1.23228e-06
1.23208e-06
1.22901e-06
1.22901e-06
1.22901e-06
1.22901e-06
1.22901e-06
1.22901e-06
1.23217e-06
1.2338e-06
1.23387e-06
1.23199e-06
1.22901e-06
1.22901e-06
1.22901e-06
1.22901e-06
1.22901e-06
1.22901e-06
1.23212e-06
1.23356e-06
1.23374e-06
1.23195e-06
1.22901e-06
1.22901e-06
1.22901e-06
1.22901e-06
1.22901e-06
1.22901e-06
1.23209e-06
1.2324e-06
1.23205e-06
1.22901e-06
1.22901e-06
1.22901e-06
1.22901e-06
1.22901e-06
1.22901e-06
1.23215e-06
1.23373e-06
1.23354e-06
1.23166e-06
1.22901e-06
1.22901e-06
1.22901e-06
1.22901e-06
1.23173e-06
1.23226e-06
1.23383e-06
1.23373e-06
1.23228e-06
1.23217e-06
1.23212e-06
1.23209e-06
1.23215e-06
1.23226e-06
1.2336e-06
1.23381e-06
1.23356e-06
1.2324e-06
1.23373e-06
1.23383e-06
1.21827e-06
1.21814e-06
1.21804e-06
1.21649e-06
1.2164e-06
1.21636e-06
1.21645e-06
1.21795e-06
1.21814e-06
1.21804e-06
1.21602e-06
1.21341e-06
1.21341e-06
1.21341e-06
1.21341e-06
1.21607e-06
1.21669e-06
1.21649e-06
1.21341e-06
1.21341e-06
1.21341e-06
1.21341e-06
1.21341e-06
1.21341e-06
1.21658e-06
1.21821e-06
1.21827e-06
1.2164e-06
1.21341e-06
1.21341e-06
1.21341e-06
1.21341e-06
1.21341e-06
1.21341e-06
1.21652e-06
1.21797e-06
1.21814e-06
1.21636e-06
1.21341e-06
1.21341e-06
1.21341e-06
1.21341e-06
1.21341e-06
1.21341e-06
1.21649e-06
1.21681e-06
1.21645e-06
1.21341e-06
1.21341e-06
1.21341e-06
1.21341e-06
1.21341e-06
1.21341e-06
1.21655e-06
1.21814e-06
1.21795e-06
1.21607e-06
1.21341e-06
1.21341e-06
1.21341e-06
1.21341e-06
1.21613e-06
1.21667e-06
1.21824e-06
1.21814e-06
1.21669e-06
1.21658e-06
1.21652e-06
1.21649e-06
1.21655e-06
1.21667e-06
1.21801e-06
1.21821e-06
1.21797e-06
1.2168e-06
1.21814e-06
1.21824e-06
1.20268e-06
1.20255e-06
1.20245e-06
1.20089e-06
1.2008e-06
1.20076e-06
1.20086e-06
1.20235e-06
1.20255e-06
1.20245e-06
1.20043e-06
1.19782e-06
1.19782e-06
1.19782e-06
1.19782e-06
1.20047e-06
1.20109e-06
1.20089e-06
1.19782e-06
1.19782e-06
1.19782e-06
1.19782e-06
1.19782e-06
1.19782e-06
1.20098e-06
1.20262e-06
1.20268e-06
1.2008e-06
1.19782e-06
1.19782e-06
1.19782e-06
1.19782e-06
1.19782e-06
1.19782e-06
1.20093e-06
1.20237e-06
1.20255e-06
1.20076e-06
1.19782e-06
1.19782e-06
1.19782e-06
1.19782e-06
1.19782e-06
1.19782e-06
1.2009e-06
1.20121e-06
1.20086e-06
1.19782e-06
1.19782e-06
1.19782e-06
1.19782e-06
1.19782e-06
1.19782e-06
1.20096e-06
1.20254e-06
1.20235e-06
1.20047e-06
1.19782e-06
1.19782e-06
1.19782e-06
1.19782e-06
1.20054e-06
1.20107e-06
1.20264e-06
1.20255e-06
1.20109e-06
1.20098e-06
1.20093e-06
1.2009e-06
1.20096e-06
1.20107e-06
1.20241e-06
1.20262e-06
1.20238e-06
1.20121e-06
1.20254e-06
1.20264e-06
1.18709e-06
1.18696e-06
1.18685e-06
1.1853e-06
1.18521e-06
1.18517e-06
1.18527e-06
1.18676e-06
1.18695e-06
1.18685e-06
1.18483e-06
1.18223e-06
1.18223e-06
1.18223e-06
1.18223e-06
1.18488e-06
1.1855e-06
1.1853e-06
1.18223e-06
1.18223e-06
1.18223e-06
1.18223e-06
1.18223e-06
1.18223e-06
1.18539e-06
1.18702e-06
1.18709e-06
1.18521e-06
1.18223e-06
1.18223e-06
1.18223e-06
1.18223e-06
1.18223e-06
1.18223e-06
1.18534e-06
1.18678e-06
1.18696e-06
1.18517e-06
1.18223e-06
1.18223e-06
1.18223e-06
1.18223e-06
1.18223e-06
1.18223e-06
1.1853e-06
1.18562e-06
1.18527e-06
1.18223e-06
1.18223e-06
1.18223e-06
1.18223e-06
1.18223e-06
1.18223e-06
1.18537e-06
1.18695e-06
1.18676e-06
1.18488e-06
1.18223e-06
1.18223e-06
1.18223e-06
1.18223e-06
1.18495e-06
1.18548e-06
1.18705e-06
1.18695e-06
1.1855e-06
1.18539e-06
1.18534e-06
1.1853e-06
1.18537e-06
1.18548e-06
1.18682e-06
1.18702e-06
1.18678e-06
1.18562e-06
1.18695e-06
1.18705e-06
1.17149e-06
1.17136e-06
1.17126e-06
1.16971e-06
1.16962e-06
1.16957e-06
1.16967e-06
1.17117e-06
1.17136e-06
1.17126e-06
1.16924e-06
1.16663e-06
1.16663e-06
1.16663e-06
1.16663e-06
1.16929e-06
1.16991e-06
1.16971e-06
1.16663e-06
1.16663e-06
1.16663e-06
1.16663e-06
1.16663e-06
1.16663e-06
1.1698e-06
1.17143e-06
1.17149e-06
1.16962e-06
1.16663e-06
1.16663e-06
1.16663e-06
1.16663e-06
1.16663e-06
1.16663e-06
1.16974e-06
1.17119e-06
1.17136e-06
1.16957e-06
1.16663e-06
1.16663e-06
1.16663e-06
1.16663e-06
1.16663e-06
1.16663e-06
1.16971e-06
1.17003e-06
1.16967e-06
1.16663e-06
1.16663e-06
1.16663e-06
1.16663e-06
1.16663e-06
1.16663e-06
1.16977e-06
1.17136e-06
1.17117e-06
1.16929e-06
1.16663e-06
1.16663e-06
1.16663e-06
1.16663e-06
1.16935e-06
1.16989e-06
1.17146e-06
1.17136e-06
1.16991e-06
1.1698e-06
1.16974e-06
1.16971e-06
1.16977e-06
1.16989e-06
1.17123e-06
1.17143e-06
1.17118e-06
1.17003e-06
1.17136e-06
1.17146e-06
1.1559e-06
1.15577e-06
1.15567e-06
1.15411e-06
1.15402e-06
1.15398e-06
1.15408e-06
1.15557e-06
1.15577e-06
1.15567e-06
1.15365e-06
1.15104e-06
1.15104e-06
1.15104e-06
1.15104e-06
1.15369e-06
1.15431e-06
1.15411e-06
1.15104e-06
1.15104e-06
1.15104e-06
1.15104e-06
1.15104e-06
1.15104e-06
1.1542e-06
1.15584e-06
1.1559e-06
1.15402e-06
1.15104e-06
1.15104e-06
1.15104e-06
1.15104e-06
1.15104e-06
1.15104e-06
1.15415e-06
1.15559e-06
1.15577e-06
1.15398e-06
1.15104e-06
1.15104e-06
1.15104e-06
1.15104e-06
1.15104e-06
1.15104e-06
1.15412e-06
1.15443e-06
1.15408e-06
1.15104e-06
1.15104e-06
1.15104e-06
1.15104e-06
1.15104e-06
1.15104e-06
1.15418e-06
1.15576e-06
1.15557e-06
1.15369e-06
1.15104e-06
1.15104e-06
1.15104e-06
1.15104e-06
1.15376e-06
1.15429e-06
1.15586e-06
1.15577e-06
1.15431e-06
1.1542e-06
1.15415e-06
1.15412e-06
1.15418e-06
1.15429e-06
1.15563e-06
1.15584e-06
1.15559e-06
1.15443e-06
1.15576e-06
1.15586e-06
1.14031e-06
1.14018e-06
1.14007e-06
1.13852e-06
1.13843e-06
1.13839e-06
1.13849e-06
1.13998e-06
1.14017e-06
1.14007e-06
1.13805e-06
1.13545e-06
1.13545e-06
1.13545e-06
1.13545e-06
1.1381e-06
1.13872e-06
1.13852e-06
1.13545e-06
1.13545e-06
1.13545e-06
1.13545e-06
1.13545e-06
1.13545e-06
1.13861e-06
1.14024e-06
1.14031e-06
1.13843e-06
1.13545e-06
1.13545e-06
1.13545e-06
1.13545e-06
1.13545e-06
1.13545e-06
1.13856e-06
1.14e-06
1.14018e-06
1.13839e-06
1.13545e-06
1.13545e-06
1.13545e-06
1.13545e-06
1.13545e-06
1.13545e-06
1.13853e-06
1.13884e-06
1.13849e-06
1.13545e-06
1.13545e-06
1.13545e-06
1.13545e-06
1.13545e-06
1.13545e-06
1.13859e-06
1.14017e-06
1.13998e-06
1.1381e-06
1.13545e-06
1.13545e-06
1.13545e-06
1.13545e-06
1.13817e-06
1.1387e-06
1.14027e-06
1.14017e-06
1.13872e-06
1.13861e-06
1.13856e-06
1.13853e-06
1.13859e-06
1.1387e-06
1.14004e-06
1.14025e-06
1.14e-06
1.13884e-06
1.14017e-06
1.14027e-06
1.12471e-06
1.12459e-06
1.12448e-06
1.12293e-06
1.12284e-06
1.1228e-06
1.12289e-06
1.12439e-06
1.12458e-06
1.12448e-06
1.12246e-06
1.11985e-06
1.11985e-06
1.11985e-06
1.11985e-06
1.12251e-06
1.12313e-06
1.12293e-06
1.11985e-06
1.11985e-06
1.11985e-06
1.11985e-06
1.11985e-06
1.11985e-06
1.12302e-06
1.12465e-06
1.12471e-06
1.12284e-06
1.11985e-06
1.11985e-06
1.11985e-06
1.11985e-06
1.11985e-06
1.11985e-06
1.12296e-06
1.12441e-06
1.12459e-06
1.1228e-06
1.11985e-06
1.11985e-06
1.11985e-06
1.11985e-06
1.11985e-06
1.11985e-06
1.12293e-06
1.12325e-06
1.12289e-06
1.11985e-06
1.11985e-06
1.11985e-06
1.11985e-06
1.11985e-06
1.11985e-06
1.12299e-06
1.12458e-06
1.12439e-06
1.12251e-06
1.11985e-06
1.11985e-06
1.11985e-06
1.11985e-06
1.12258e-06
1.12311e-06
1.12468e-06
1.12458e-06
1.12313e-06
1.12302e-06
1.12296e-06
1.12293e-06
1.12299e-06
1.12311e-06
1.12445e-06
1.12465e-06
1.12441e-06
1.12325e-06
1.12458e-06
1.12468e-06
1.10912e-06
1.10899e-06
1.10889e-06
1.10734e-06
1.10725e-06
1.1072e-06
1.1073e-06
1.1088e-06
1.10899e-06
1.10889e-06
1.10687e-06
1.10426e-06
1.10426e-06
1.10426e-06
1.10426e-06
1.10691e-06
1.10754e-06
1.10734e-06
1.10426e-06
1.10426e-06
1.10426e-06
1.10426e-06
1.10426e-06
1.10426e-06
1.10743e-06
1.10906e-06
1.10912e-06
1.10725e-06
1.10426e-06
1.10426e-06
1.10426e-06
1.10426e-06
1.10426e-06
1.10426e-06
1.10737e-06
1.10882e-06
1.10899e-06
1.1072e-06
1.10426e-06
1.10426e-06
1.10426e-06
1.10426e-06
1.10426e-06
1.10426e-06
1.10734e-06
1.10765e-06
1.1073e-06
1.10426e-06
1.10426e-06
1.10426e-06
1.10426e-06
1.10426e-06
1.10426e-06
1.1074e-06
1.10899e-06
1.1088e-06
1.10691e-06
1.10426e-06
1.10426e-06
1.10426e-06
1.10426e-06
1.10698e-06
1.10752e-06
1.10909e-06
1.10899e-06
1.10754e-06
1.10742e-06
1.10737e-06
1.10734e-06
1.1074e-06
1.10752e-06
1.10885e-06
1.10906e-06
1.10881e-06
1.10766e-06
1.10899e-06
1.10909e-06
1.09353e-06
1.0934e-06
1.0933e-06
1.09174e-06
1.09165e-06
1.09161e-06
1.09171e-06
1.0932e-06
1.0934e-06
1.0933e-06
1.09127e-06
1.08867e-06
1.08867e-06
1.08867e-06
1.08867e-06
1.09132e-06
1.09194e-06
1.09174e-06
1.08867e-06
1.08867e-06
1.08867e-06
1.08867e-06
1.08867e-06
1.08867e-06
1.09183e-06
1.09347e-06
1.09353e-06
1.09165e-06
1.08867e-06
1.08867e-06
1.08867e-06
1.08867e-06
1.08867e-06
1.08867e-06
1.09178e-06
1.09322e-06
1.0934e-06
1.09161e-06
1.08867e-06
1.08867e-06
1.08867e-06
1.08867e-06
1.08867e-06
1.08867e-06
1.09175e-06
1.09206e-06
1.09171e-06
1.08867e-06
1.08867e-06
1.08867e-06
1.08867e-06
1.08867e-06
1.08867e-06
1.09181e-06
1.09339e-06
1.0932e-06
1.09132e-06
1.08867e-06
1.08867e-06
1.08867e-06
1.08867e-06
1.09139e-06
1.09192e-06
1.09349e-06
1.0934e-06
1.09194e-06
1.09183e-06
1.09178e-06
1.09175e-06
1.09181e-06
1.09192e-06
1.09326e-06
1.09347e-06
1.09322e-06
1.09206e-06
1.09339e-06
1.09349e-06
1.07793e-06
1.07781e-06
1.0777e-06
1.07615e-06
1.07606e-06
1.07602e-06
1.07612e-06
1.07761e-06
1.0778e-06
1.0777e-06
1.07568e-06
1.07307e-06
1.07307e-06
1.07307e-06
1.07307e-06
1.07573e-06
1.07635e-06
1.07615e-06
1.07307e-06
1.07307e-06
1.07307e-06
1.07307e-06
1.07307e-06
1.07307e-06
1.07624e-06
1.07787e-06
1.07793e-06
1.07606e-06
1.07307e-06
1.07307e-06
1.07307e-06
1.07307e-06
1.07307e-06
1.07307e-06
1.07618e-06
1.07763e-06
1.07781e-06
1.07602e-06
1.07307e-06
1.07307e-06
1.07307e-06
1.07307e-06
1.07307e-06
1.07307e-06
1.07615e-06
1.07647e-06
1.07612e-06
1.07307e-06
1.07307e-06
1.07307e-06
1.07307e-06
1.07307e-06
1.07307e-06
1.07622e-06
1.0778e-06
1.07761e-06
1.07573e-06
1.07307e-06
1.07307e-06
1.07307e-06
1.07307e-06
1.0758e-06
1.07633e-06
1.0779e-06
1.0778e-06
1.07635e-06
1.07624e-06
1.07618e-06
1.07615e-06
1.07622e-06
1.07633e-06
1.07767e-06
1.07787e-06
1.07763e-06
1.07647e-06
1.0778e-06
1.0779e-06
1.06234e-06
1.06221e-06
1.06211e-06
1.06056e-06
1.06047e-06
1.06042e-06
1.06052e-06
1.06202e-06
1.06221e-06
1.06211e-06
1.06009e-06
1.05748e-06
1.05748e-06
1.05748e-06
1.05748e-06
1.06013e-06
1.06076e-06
1.06056e-06
1.05748e-06
1.05748e-06
1.05748e-06
1.05748e-06
1.05748e-06
1.05748e-06
1.06065e-06
1.06228e-06
1.06234e-06
1.06047e-06
1.05748e-06
1.05748e-06
1.05748e-06
1.05748e-06
1.05748e-06
1.05748e-06
1.06059e-06
1.06204e-06
1.06221e-06
1.06042e-06
1.05748e-06
1.05748e-06
1.05748e-06
1.05748e-06
1.05748e-06
1.05748e-06
1.06056e-06
1.06087e-06
1.06052e-06
1.05748e-06
1.05748e-06
1.05748e-06
1.05748e-06
1.05748e-06
1.05748e-06
1.06062e-06
1.0622e-06
1.06202e-06
1.06013e-06
1.05748e-06
1.05748e-06
1.05748e-06
1.05748e-06
1.0602e-06
1.06074e-06
1.06231e-06
1.06221e-06
1.06076e-06
1.06065e-06
1.06059e-06
1.06056e-06
1.06062e-06
1.06074e-06
1.06207e-06
1.06228e-06
1.06204e-06
1.06087e-06
1.0622e-06
1.06231e-06
1.04675e-06
1.04662e-06
1.04651e-06
1.04496e-06
1.04487e-06
1.04483e-06
1.04493e-06
1.04642e-06
1.04661e-06
1.04651e-06
1.04449e-06
1.04189e-06
1.04189e-06
1.04189e-06
1.04189e-06
1.04454e-06
1.04516e-06
1.04496e-06
1.04189e-06
1.04189e-06
1.04189e-06
1.04189e-06
1.04189e-06
1.04189e-06
1.04505e-06
1.04669e-06
1.04674e-06
1.04487e-06
1.04189e-06
1.04189e-06
1.04189e-06
1.04189e-06
1.04189e-06
1.04189e-06
1.045e-06
1.04644e-06
1.04662e-06
1.04483e-06
1.04189e-06
1.04189e-06
1.04189e-06
1.04189e-06
1.04189e-06
1.04189e-06
1.04497e-06
1.04528e-06
1.04493e-06
1.04189e-06
1.04189e-06
1.04189e-06
1.04189e-06
1.04189e-06
1.04189e-06
1.04503e-06
1.04661e-06
1.04642e-06
1.04454e-06
1.04189e-06
1.04189e-06
1.04189e-06
1.04189e-06
1.04461e-06
1.04514e-06
1.04671e-06
1.04662e-06
1.04516e-06
1.04505e-06
1.045e-06
1.04497e-06
1.04503e-06
1.04514e-06
1.04648e-06
1.04669e-06
1.04644e-06
1.04528e-06
1.04661e-06
1.04671e-06
1.03115e-06
1.03103e-06
1.03092e-06
1.02937e-06
1.02928e-06
1.02924e-06
1.02933e-06
1.03083e-06
1.03102e-06
1.03092e-06
1.0289e-06
1.02629e-06
1.02629e-06
1.02629e-06
1.02629e-06
1.02895e-06
1.02957e-06
1.02937e-06
1.02629e-06
1.02629e-06
1.02629e-06
1.02629e-06
1.02629e-06
1.02629e-06
1.02946e-06
1.03109e-06
1.03115e-06
1.02928e-06
1.02629e-06
1.02629e-06
1.02629e-06
1.02629e-06
1.02629e-06
1.02629e-06
1.0294e-06
1.03085e-06
1.03102e-06
1.02924e-06
1.02629e-06
1.02629e-06
1.02629e-06
1.02629e-06
1.02629e-06
1.02629e-06
1.02937e-06
1.02969e-06
1.02934e-06
1.02629e-06
1.02629e-06
1.02629e-06
1.02629e-06
1.02629e-06
1.02629e-06
1.02943e-06
1.03102e-06
1.03083e-06
1.02895e-06
1.02629e-06
1.02629e-06
1.02629e-06
1.02629e-06
1.02902e-06
1.02955e-06
1.03112e-06
1.03102e-06
1.02957e-06
1.02946e-06
1.0294e-06
1.02937e-06
1.02943e-06
1.02955e-06
1.03089e-06
1.03109e-06
1.03085e-06
1.02969e-06
1.03102e-06
1.03112e-06
1.01556e-06
1.01543e-06
1.01533e-06
1.01378e-06
1.01369e-06
1.01364e-06
1.01374e-06
1.01524e-06
1.01543e-06
1.01533e-06
1.01331e-06
1.0107e-06
1.0107e-06
1.0107e-06
1.0107e-06
1.01335e-06
1.01398e-06
1.01378e-06
1.0107e-06
1.0107e-06
1.0107e-06
1.0107e-06
1.0107e-06
1.0107e-06
1.01387e-06
1.0155e-06
1.01556e-06
1.01369e-06
1.0107e-06
1.0107e-06
1.0107e-06
1.0107e-06
1.0107e-06
1.0107e-06
1.01381e-06
1.01526e-06
1.01543e-06
1.01364e-06
1.0107e-06
1.0107e-06
1.0107e-06
1.0107e-06
1.0107e-06
1.0107e-06
1.01378e-06
1.01409e-06
1.01374e-06
1.0107e-06
1.0107e-06
1.0107e-06
1.0107e-06
1.0107e-06
1.0107e-06
1.01384e-06
1.01542e-06
1.01524e-06
1.01335e-06
1.0107e-06
1.0107e-06
1.0107e-06
1.0107e-06
1.01342e-06
1.01396e-06
1.01553e-06
1.01543e-06
1.01398e-06
1.01387e-06
1.01381e-06
1.01378e-06
1.01384e-06
1.01396e-06
1.01529e-06
1.0155e-06
1.01526e-06
1.01409e-06
1.01542e-06
1.01553e-06
9.99967e-07
9.9984e-07
9.99736e-07
9.98184e-07
9.98093e-07
9.98051e-07
9.98149e-07
9.99642e-07
9.99835e-07
9.99735e-07
9.97715e-07
9.95108e-07
9.95108e-07
9.95108e-07
9.95108e-07
9.97761e-07
9.98383e-07
9.98184e-07
9.95108e-07
9.95108e-07
9.95108e-07
9.95108e-07
9.95108e-07
9.95108e-07
9.98272e-07
9.99907e-07
9.99968e-07
9.98093e-07
9.95108e-07
9.95108e-07
9.95108e-07
9.95108e-07
9.95108e-07
9.95108e-07
9.98218e-07
9.99663e-07
9.9984e-07
9.98051e-07
9.95108e-07
9.95108e-07
9.95108e-07
9.95108e-07
9.95108e-07
9.95108e-07
9.98187e-07
9.98501e-07
9.98149e-07
9.95108e-07
9.95108e-07
9.95108e-07
9.95108e-07
9.95108e-07
9.95108e-07
9.98249e-07
9.99832e-07
9.99642e-07
9.97761e-07
9.95108e-07
9.95108e-07
9.95108e-07
9.95108e-07
9.9783e-07
9.98363e-07
9.99933e-07