/*--------------------------------*- C++ -*----------------------------------*\
| =========                 |                                                 |
| \\      /  F ield         | OpenFOAM: The Open Source CFD Toolbox           |
|  \\    /   O peration     | Version:  v2012                                 |
|   \\  /    A nd           | Website:  www.openfoam.com                      |
|    \\/     M anipulation  |                                                 |
\*---------------------------------------------------------------------------*/
FoamFile
{
    version     2.0;
    format      ascii;
    class       volScalarField;
    location    "9";
    object      p;
}
// * * * * * * * * * * * * * * * * * * * * * * * * * * * * * * * * * * * * * //

dimensions      [0 2 -2 0 0 0 0];


internalField   nonuniform List<scalar> 
244288
(
1.57643e-06
1.5767e-06
1.57665e-06
1.5765e-06
1.57643e-06
1.57652e-06
1.57667e-06
1.5767e-06
1.57672e-06
1.57648e-06
1.57619e-06
1.57608e-06
1.57622e-06
1.57651e-06
1.57673e-06
1.57665e-06
1.57648e-06
1.57604e-06
1.57566e-06
1.57553e-06
1.5757e-06
1.5761e-06
1.57652e-06
1.57665e-06
1.5765e-06
1.57619e-06
1.57566e-06
1.57524e-06
1.57509e-06
1.57528e-06
1.57572e-06
1.57625e-06
1.57651e-06
1.57643e-06
1.57643e-06
1.57608e-06
1.57553e-06
1.57509e-06
1.57495e-06
1.57513e-06
1.57559e-06
1.57614e-06
1.57645e-06
1.57652e-06
1.57622e-06
1.5757e-06
1.57528e-06
1.57513e-06
1.57532e-06
1.57576e-06
1.57627e-06
1.57653e-06
1.57667e-06
1.57651e-06
1.5761e-06
1.57572e-06
1.57559e-06
1.57576e-06
1.57615e-06
1.57655e-06
1.57666e-06
1.57673e-06
1.57652e-06
1.57625e-06
1.57614e-06
1.57627e-06
1.57655e-06
1.57673e-06
1.57665e-06
1.57651e-06
1.57645e-06
1.57653e-06
1.57666e-06
1.5514e-06
1.55099e-06
1.55072e-06
1.54926e-06
1.54918e-06
1.54918e-06
1.54919e-06
1.55063e-06
1.5508e-06
1.55072e-06
1.54883e-06
1.54626e-06
1.54626e-06
1.54626e-06
1.54626e-06
1.54879e-06
1.54926e-06
1.54926e-06
1.54626e-06
1.5462e-06
1.54623e-06
1.54623e-06
1.5462e-06
1.54626e-06
1.54912e-06
1.55089e-06
1.5514e-06
1.54918e-06
1.54626e-06
1.54623e-06
1.54628e-06
1.54628e-06
1.54623e-06
1.54626e-06
1.54903e-06
1.55062e-06
1.55099e-06
1.54918e-06
1.54626e-06
1.54623e-06
1.54628e-06
1.54628e-06
1.54623e-06
1.54626e-06
1.54899e-06
1.54946e-06
1.54919e-06
1.54626e-06
1.5462e-06
1.54623e-06
1.54623e-06
1.5462e-06
1.54626e-06
1.54906e-06
1.55072e-06
1.55063e-06
1.54879e-06
1.54626e-06
1.54626e-06
1.54626e-06
1.54626e-06
1.5486e-06
1.54925e-06
1.55092e-06
1.55079e-06
1.54926e-06
1.54912e-06
1.54903e-06
1.54899e-06
1.54906e-06
1.54925e-06
1.55095e-06
1.55089e-06
1.55062e-06
1.54946e-06
1.55072e-06
1.55092e-06
1.53481e-06
1.53467e-06
1.53461e-06
1.53298e-06
1.53289e-06
1.53287e-06
1.53294e-06
1.53447e-06
1.53471e-06
1.53461e-06
1.53256e-06
1.52976e-06
1.52975e-06
1.52975e-06
1.52976e-06
1.53253e-06
1.5331e-06
1.53298e-06
1.52976e-06
1.52973e-06
1.52973e-06
1.52973e-06
1.52973e-06
1.52976e-06
1.53294e-06
1.53471e-06
1.53481e-06
1.53289e-06
1.52975e-06
1.52973e-06
1.52973e-06
1.52973e-06
1.52973e-06
1.52975e-06
1.53283e-06
1.53443e-06
1.53467e-06
1.53287e-06
1.52975e-06
1.52973e-06
1.52973e-06
1.52973e-06
1.52973e-06
1.52975e-06
1.53278e-06
1.53321e-06
1.53293e-06
1.52976e-06
1.52973e-06
1.52973e-06
1.52973e-06
1.52973e-06
1.52976e-06
1.53288e-06
1.53459e-06
1.53447e-06
1.53253e-06
1.52976e-06
1.52975e-06
1.52975e-06
1.52976e-06
1.5324e-06
1.53306e-06
1.53475e-06
1.53471e-06
1.5331e-06
1.53294e-06
1.53283e-06
1.53278e-06
1.53288e-06
1.53306e-06
1.53472e-06
1.53471e-06
1.53443e-06
1.53322e-06
1.53458e-06
1.53475e-06
1.51843e-06
1.51828e-06
1.51821e-06
1.51656e-06
1.51646e-06
1.51643e-06
1.51651e-06
1.51807e-06
1.51832e-06
1.51821e-06
1.5161e-06
1.51329e-06
1.51329e-06
1.51329e-06
1.51329e-06
1.51608e-06
1.5167e-06
1.51656e-06
1.51329e-06
1.51329e-06
1.51329e-06
1.51329e-06
1.51329e-06
1.51329e-06
1.51655e-06
1.51832e-06
1.51843e-06
1.51646e-06
1.51329e-06
1.51329e-06
1.51329e-06
1.51329e-06
1.51329e-06
1.51329e-06
1.51646e-06
1.51804e-06
1.51828e-06
1.51643e-06
1.51329e-06
1.51329e-06
1.51329e-06
1.51329e-06
1.51329e-06
1.51329e-06
1.51643e-06
1.51683e-06
1.51651e-06
1.51329e-06
1.51329e-06
1.51329e-06
1.51329e-06
1.51329e-06
1.51329e-06
1.5165e-06
1.5182e-06
1.51807e-06
1.51608e-06
1.51329e-06
1.51329e-06
1.51329e-06
1.51329e-06
1.51602e-06
1.51666e-06
1.51836e-06
1.51832e-06
1.51669e-06
1.51655e-06
1.51646e-06
1.51643e-06
1.5165e-06
1.51666e-06
1.51836e-06
1.51832e-06
1.51804e-06
1.51683e-06
1.5182e-06
1.51836e-06
1.50199e-06
1.50185e-06
1.50177e-06
1.50012e-06
1.50002e-06
1.49998e-06
1.50007e-06
1.50163e-06
1.50188e-06
1.50177e-06
1.49965e-06
1.49684e-06
1.49684e-06
1.49684e-06
1.49684e-06
1.49963e-06
1.50026e-06
1.50012e-06
1.49684e-06
1.49684e-06
1.49684e-06
1.49684e-06
1.49684e-06
1.49684e-06
1.50012e-06
1.50188e-06
1.50199e-06
1.50002e-06
1.49684e-06
1.49684e-06
1.49684e-06
1.49684e-06
1.49684e-06
1.49684e-06
1.50004e-06
1.50161e-06
1.50185e-06
1.49998e-06
1.49684e-06
1.49684e-06
1.49684e-06
1.49684e-06
1.49684e-06
1.49684e-06
1.5e-06
1.5004e-06
1.50007e-06
1.49684e-06
1.49684e-06
1.49684e-06
1.49684e-06
1.49684e-06
1.49684e-06
1.50007e-06
1.50177e-06
1.50163e-06
1.49963e-06
1.49684e-06
1.49684e-06
1.49684e-06
1.49684e-06
1.49959e-06
1.50023e-06
1.50192e-06
1.50188e-06
1.50026e-06
1.50012e-06
1.50004e-06
1.5e-06
1.50007e-06
1.50023e-06
1.50191e-06
1.50188e-06
1.50161e-06
1.5004e-06
1.50177e-06
1.50192e-06
1.48555e-06
1.48541e-06
1.48533e-06
1.48367e-06
1.48358e-06
1.48354e-06
1.48363e-06
1.48519e-06
1.48543e-06
1.48533e-06
1.4832e-06
1.4804e-06
1.4804e-06
1.4804e-06
1.4804e-06
1.48319e-06
1.48382e-06
1.48367e-06
1.4804e-06
1.4804e-06
1.4804e-06
1.4804e-06
1.4804e-06
1.4804e-06
1.48368e-06
1.48544e-06
1.48555e-06
1.48357e-06
1.4804e-06
1.4804e-06
1.4804e-06
1.4804e-06
1.4804e-06
1.4804e-06
1.4836e-06
1.48517e-06
1.48541e-06
1.48353e-06
1.4804e-06
1.4804e-06
1.4804e-06
1.4804e-06
1.4804e-06
1.4804e-06
1.48356e-06
1.48396e-06
1.48363e-06
1.4804e-06
1.4804e-06
1.4804e-06
1.4804e-06
1.4804e-06
1.4804e-06
1.48363e-06
1.48533e-06
1.48519e-06
1.48319e-06
1.4804e-06
1.4804e-06
1.4804e-06
1.4804e-06
1.48315e-06
1.48379e-06
1.48548e-06
1.48544e-06
1.48382e-06
1.48368e-06
1.4836e-06
1.48356e-06
1.48364e-06
1.48379e-06
1.48546e-06
1.48544e-06
1.48517e-06
1.48396e-06
1.48533e-06
1.48548e-06
1.46911e-06
1.46897e-06
1.46889e-06
1.46723e-06
1.46713e-06
1.4671e-06
1.46719e-06
1.46875e-06
1.46899e-06
1.46889e-06
1.46676e-06
1.46396e-06
1.46396e-06
1.46396e-06
1.46396e-06
1.46675e-06
1.46738e-06
1.46723e-06
1.46396e-06
1.46396e-06
1.46396e-06
1.46396e-06
1.46396e-06
1.46396e-06
1.46723e-06
1.469e-06
1.46911e-06
1.46713e-06
1.46396e-06
1.46396e-06
1.46396e-06
1.46396e-06
1.46396e-06
1.46396e-06
1.46716e-06
1.46873e-06
1.46898e-06
1.46709e-06
1.46396e-06
1.46396e-06
1.46396e-06
1.46396e-06
1.46396e-06
1.46396e-06
1.46712e-06
1.46752e-06
1.46719e-06
1.46396e-06
1.46396e-06
1.46396e-06
1.46396e-06
1.46396e-06
1.46396e-06
1.46719e-06
1.46889e-06
1.46875e-06
1.46675e-06
1.46396e-06
1.46396e-06
1.46396e-06
1.46396e-06
1.46671e-06
1.46734e-06
1.46904e-06
1.46899e-06
1.46738e-06
1.46723e-06
1.46716e-06
1.46712e-06
1.46719e-06
1.46734e-06
1.46902e-06
1.469e-06
1.46873e-06
1.46752e-06
1.46889e-06
1.46904e-06
1.45267e-06
1.45253e-06
1.45245e-06
1.45079e-06
1.45069e-06
1.45065e-06
1.45075e-06
1.4523e-06
1.45255e-06
1.45245e-06
1.45032e-06
1.44751e-06
1.44751e-06
1.44751e-06
1.44751e-06
1.4503e-06
1.45093e-06
1.45079e-06
1.44751e-06
1.44751e-06
1.44751e-06
1.44751e-06
1.44751e-06
1.44751e-06
1.45079e-06
1.45256e-06
1.45267e-06
1.45069e-06
1.44751e-06
1.44751e-06
1.44751e-06
1.44751e-06
1.44751e-06
1.44751e-06
1.45071e-06
1.45229e-06
1.45253e-06
1.45065e-06
1.44751e-06
1.44751e-06
1.44751e-06
1.44751e-06
1.44751e-06
1.44751e-06
1.45068e-06
1.45108e-06
1.45075e-06
1.44751e-06
1.44751e-06
1.44751e-06
1.44751e-06
1.44751e-06
1.44751e-06
1.45075e-06
1.45244e-06
1.4523e-06
1.4503e-06
1.44751e-06
1.44751e-06
1.44751e-06
1.44751e-06
1.45027e-06
1.4509e-06
1.4526e-06
1.45255e-06
1.45093e-06
1.45079e-06
1.45071e-06
1.45068e-06
1.45075e-06
1.4509e-06
1.45258e-06
1.45256e-06
1.45229e-06
1.45108e-06
1.45244e-06
1.4526e-06
1.43622e-06
1.43608e-06
1.436e-06
1.43434e-06
1.43425e-06
1.43421e-06
1.4343e-06
1.43586e-06
1.43611e-06
1.436e-06
1.43387e-06
1.43107e-06
1.43107e-06
1.43107e-06
1.43107e-06
1.43386e-06
1.43449e-06
1.43434e-06
1.43107e-06
1.43107e-06
1.43107e-06
1.43107e-06
1.43107e-06
1.43107e-06
1.43435e-06
1.43611e-06
1.43623e-06
1.43425e-06
1.43107e-06
1.43107e-06
1.43107e-06
1.43107e-06
1.43107e-06
1.43107e-06
1.43427e-06
1.43585e-06
1.43608e-06
1.43421e-06
1.43107e-06
1.43107e-06
1.43107e-06
1.43107e-06
1.43107e-06
1.43107e-06
1.43423e-06
1.43463e-06
1.4343e-06
1.43107e-06
1.43107e-06
1.43107e-06
1.43107e-06
1.43107e-06
1.43107e-06
1.43431e-06
1.436e-06
1.43586e-06
1.43386e-06
1.43107e-06
1.43107e-06
1.43107e-06
1.43107e-06
1.43383e-06
1.43446e-06
1.43616e-06
1.43611e-06
1.43449e-06
1.43435e-06
1.43427e-06
1.43423e-06
1.43431e-06
1.43446e-06
1.43613e-06
1.43611e-06
1.43585e-06
1.43463e-06
1.436e-06
1.43616e-06
1.41978e-06
1.41964e-06
1.41956e-06
1.4179e-06
1.41781e-06
1.41777e-06
1.41786e-06
1.41942e-06
1.41966e-06
1.41956e-06
1.41743e-06
1.41463e-06
1.41463e-06
1.41463e-06
1.41463e-06
1.41742e-06
1.41805e-06
1.4179e-06
1.41463e-06
1.41463e-06
1.41463e-06
1.41463e-06
1.41463e-06
1.41463e-06
1.41791e-06
1.41967e-06
1.41978e-06
1.41781e-06
1.41463e-06
1.41463e-06
1.41463e-06
1.41463e-06
1.41463e-06
1.41463e-06
1.41783e-06
1.4194e-06
1.41964e-06
1.41777e-06
1.41463e-06
1.41463e-06
1.41463e-06
1.41463e-06
1.41463e-06
1.41463e-06
1.41779e-06
1.41819e-06
1.41786e-06
1.41463e-06
1.41463e-06
1.41463e-06
1.41463e-06
1.41463e-06
1.41463e-06
1.41787e-06
1.41956e-06
1.41942e-06
1.41742e-06
1.41463e-06
1.41463e-06
1.41463e-06
1.41463e-06
1.41738e-06
1.41802e-06
1.41971e-06
1.41966e-06
1.41805e-06
1.41791e-06
1.41783e-06
1.41779e-06
1.41787e-06
1.41802e-06
1.41969e-06
1.41967e-06
1.4194e-06
1.41819e-06
1.41956e-06
1.41971e-06
1.40334e-06
1.4032e-06
1.40312e-06
1.40146e-06
1.40136e-06
1.40132e-06
1.40142e-06
1.40298e-06
1.40322e-06
1.40312e-06
1.40099e-06
1.39818e-06
1.39818e-06
1.39818e-06
1.39818e-06
1.40098e-06
1.4016e-06
1.40146e-06
1.39818e-06
1.39818e-06
1.39818e-06
1.39818e-06
1.39818e-06
1.39818e-06
1.40146e-06
1.40323e-06
1.40334e-06
1.40136e-06
1.39818e-06
1.39818e-06
1.39818e-06
1.39818e-06
1.39818e-06
1.39818e-06
1.40138e-06
1.40296e-06
1.4032e-06
1.40133e-06
1.39818e-06
1.39818e-06
1.39818e-06
1.39818e-06
1.39818e-06
1.39818e-06
1.40135e-06
1.40175e-06
1.40142e-06
1.39818e-06
1.39818e-06
1.39818e-06
1.39818e-06
1.39818e-06
1.39818e-06
1.40142e-06
1.40312e-06
1.40298e-06
1.40098e-06
1.39818e-06
1.39818e-06
1.39818e-06
1.39818e-06
1.40094e-06
1.40157e-06
1.40327e-06
1.40322e-06
1.4016e-06
1.40146e-06
1.40138e-06
1.40135e-06
1.40142e-06
1.40157e-06
1.40325e-06
1.40323e-06
1.40296e-06
1.40175e-06
1.40312e-06
1.40327e-06
1.3869e-06
1.38676e-06
1.38667e-06
1.38502e-06
1.38492e-06
1.38488e-06
1.38497e-06
1.38653e-06
1.38678e-06
1.38667e-06
1.38454e-06
1.38174e-06
1.38174e-06
1.38174e-06
1.38174e-06
1.38453e-06
1.38516e-06
1.38502e-06
1.38174e-06
1.38174e-06
1.38174e-06
1.38174e-06
1.38174e-06
1.38174e-06
1.38502e-06
1.38679e-06
1.3869e-06
1.38492e-06
1.38174e-06
1.38174e-06
1.38174e-06
1.38174e-06
1.38174e-06
1.38174e-06
1.38494e-06
1.38652e-06
1.38676e-06
1.38488e-06
1.38174e-06
1.38174e-06
1.38174e-06
1.38174e-06
1.38174e-06
1.38174e-06
1.38491e-06
1.38531e-06
1.38497e-06
1.38174e-06
1.38174e-06
1.38174e-06
1.38174e-06
1.38174e-06
1.38174e-06
1.38498e-06
1.38667e-06
1.38653e-06
1.38453e-06
1.38174e-06
1.38174e-06
1.38174e-06
1.38174e-06
1.3845e-06
1.38513e-06
1.38683e-06
1.38678e-06
1.38516e-06
1.38502e-06
1.38494e-06
1.38491e-06
1.38498e-06
1.38513e-06
1.3868e-06
1.38679e-06
1.38652e-06
1.38531e-06
1.38667e-06
1.38683e-06
1.37045e-06
1.37031e-06
1.37023e-06
1.36857e-06
1.36848e-06
1.36844e-06
1.36853e-06
1.37009e-06
1.37034e-06
1.37023e-06
1.3681e-06
1.3653e-06
1.3653e-06
1.3653e-06
1.3653e-06
1.36809e-06
1.36872e-06
1.36857e-06
1.3653e-06
1.3653e-06
1.3653e-06
1.3653e-06
1.3653e-06
1.3653e-06
1.36858e-06
1.37034e-06
1.37045e-06
1.36848e-06
1.3653e-06
1.3653e-06
1.3653e-06
1.3653e-06
1.3653e-06
1.3653e-06
1.3685e-06
1.37008e-06
1.37031e-06
1.36844e-06
1.3653e-06
1.3653e-06
1.3653e-06
1.3653e-06
1.3653e-06
1.3653e-06
1.36846e-06
1.36886e-06
1.36853e-06
1.3653e-06
1.3653e-06
1.3653e-06
1.3653e-06
1.3653e-06
1.3653e-06
1.36854e-06
1.37023e-06
1.37009e-06
1.36809e-06
1.3653e-06
1.3653e-06
1.3653e-06
1.3653e-06
1.36805e-06
1.36869e-06
1.37038e-06
1.37034e-06
1.36872e-06
1.36858e-06
1.3685e-06
1.36846e-06
1.36854e-06
1.36869e-06
1.37036e-06
1.37034e-06
1.37008e-06
1.36886e-06
1.37023e-06
1.37038e-06
1.35401e-06
1.35387e-06
1.35379e-06
1.35213e-06
1.35204e-06
1.352e-06
1.35209e-06
1.35365e-06
1.35389e-06
1.35379e-06
1.35166e-06
1.34886e-06
1.34886e-06
1.34886e-06
1.34886e-06
1.35165e-06
1.35228e-06
1.35213e-06
1.34886e-06
1.34886e-06
1.34886e-06
1.34886e-06
1.34886e-06
1.34886e-06
1.35214e-06
1.3539e-06
1.35401e-06
1.35203e-06
1.34886e-06
1.34886e-06
1.34886e-06
1.34886e-06
1.34886e-06
1.34886e-06
1.35206e-06
1.35363e-06
1.35388e-06
1.352e-06
1.34886e-06
1.34886e-06
1.34886e-06
1.34886e-06
1.34886e-06
1.34886e-06
1.35202e-06
1.35242e-06
1.35209e-06
1.34886e-06
1.34886e-06
1.34886e-06
1.34886e-06
1.34886e-06
1.34886e-06
1.35209e-06
1.35379e-06
1.35365e-06
1.35165e-06
1.34886e-06
1.34886e-06
1.34886e-06
1.34886e-06
1.35161e-06
1.35225e-06
1.35394e-06
1.35389e-06
1.35228e-06
1.35214e-06
1.35206e-06
1.35202e-06
1.35209e-06
1.35225e-06
1.35392e-06
1.3539e-06
1.35363e-06
1.35242e-06
1.35379e-06
1.35394e-06
1.33757e-06
1.33743e-06
1.33735e-06
1.33569e-06
1.33559e-06
1.33555e-06
1.33565e-06
1.33721e-06
1.33745e-06
1.33735e-06
1.33522e-06
1.33241e-06
1.33241e-06
1.33241e-06
1.33241e-06
1.33521e-06
1.33583e-06
1.33569e-06
1.33241e-06
1.33241e-06
1.33241e-06
1.33241e-06
1.33241e-06
1.33241e-06
1.33569e-06
1.33746e-06
1.33757e-06
1.33559e-06
1.33241e-06
1.33241e-06
1.33241e-06
1.33241e-06
1.33241e-06
1.33241e-06
1.33561e-06
1.33719e-06
1.33743e-06
1.33555e-06
1.33241e-06
1.33241e-06
1.33241e-06
1.33241e-06
1.33241e-06
1.33241e-06
1.33558e-06
1.33598e-06
1.33565e-06
1.33241e-06
1.33241e-06
1.33241e-06
1.33241e-06
1.33241e-06
1.33241e-06
1.33565e-06
1.33735e-06
1.33721e-06
1.3352e-06
1.33241e-06
1.33241e-06
1.33241e-06
1.33241e-06
1.33517e-06
1.3358e-06
1.3375e-06
1.33745e-06
1.33583e-06
1.33569e-06
1.33561e-06
1.33558e-06
1.33565e-06
1.3358e-06
1.33748e-06
1.33746e-06
1.33719e-06
1.33598e-06
1.33735e-06
1.3375e-06
1.32113e-06
1.32098e-06
1.3209e-06
1.31925e-06
1.31915e-06
1.31911e-06
1.3192e-06
1.32076e-06
1.32101e-06
1.3209e-06
1.31877e-06
1.31597e-06
1.31597e-06
1.31597e-06
1.31597e-06
1.31876e-06
1.31939e-06
1.31925e-06
1.31597e-06
1.31597e-06
1.31597e-06
1.31597e-06
1.31597e-06
1.31597e-06
1.31925e-06
1.32102e-06
1.32113e-06
1.31915e-06
1.31597e-06
1.31597e-06
1.31597e-06
1.31597e-06
1.31597e-06
1.31597e-06
1.31917e-06
1.32075e-06
1.32098e-06
1.31911e-06
1.31597e-06
1.31597e-06
1.31597e-06
1.31597e-06
1.31597e-06
1.31597e-06
1.31913e-06
1.31953e-06
1.3192e-06
1.31597e-06
1.31597e-06
1.31597e-06
1.31597e-06
1.31597e-06
1.31597e-06
1.31921e-06
1.3209e-06
1.32076e-06
1.31876e-06
1.31597e-06
1.31597e-06
1.31597e-06
1.31597e-06
1.31873e-06
1.31936e-06
1.32106e-06
1.32101e-06
1.31939e-06
1.31925e-06
1.31917e-06
1.31914e-06
1.31921e-06
1.31936e-06
1.32103e-06
1.32102e-06
1.32075e-06
1.31953e-06
1.3209e-06
1.32106e-06
1.30468e-06
1.30454e-06
1.30446e-06
1.3028e-06
1.30271e-06
1.30267e-06
1.30276e-06
1.30432e-06
1.30456e-06
1.30446e-06
1.30233e-06
1.29953e-06
1.29953e-06
1.29953e-06
1.29953e-06
1.30232e-06
1.30295e-06
1.3028e-06
1.29953e-06
1.29953e-06
1.29953e-06
1.29953e-06
1.29953e-06
1.29953e-06
1.30281e-06
1.30457e-06
1.30468e-06
1.30271e-06
1.29953e-06
1.29953e-06
1.29953e-06
1.29953e-06
1.29953e-06
1.29953e-06
1.30273e-06
1.3043e-06
1.30454e-06
1.30267e-06
1.29953e-06
1.29953e-06
1.29953e-06
1.29953e-06
1.29953e-06
1.29953e-06
1.30269e-06
1.30309e-06
1.30276e-06
1.29953e-06
1.29953e-06
1.29953e-06
1.29953e-06
1.29953e-06
1.29953e-06
1.30277e-06
1.30446e-06
1.30432e-06
1.30232e-06
1.29953e-06
1.29953e-06
1.29953e-06
1.29953e-06
1.30228e-06
1.30292e-06
1.30461e-06
1.30456e-06
1.30295e-06
1.30281e-06
1.30273e-06
1.30269e-06
1.30277e-06
1.30292e-06
1.30459e-06
1.30457e-06
1.30431e-06
1.30309e-06
1.30446e-06
1.30461e-06
1.28824e-06
1.2881e-06
1.28802e-06
1.28636e-06
1.28626e-06
1.28623e-06
1.28632e-06
1.28788e-06
1.28812e-06
1.28802e-06
1.28589e-06
1.28309e-06
1.28309e-06
1.28309e-06
1.28309e-06
1.28588e-06
1.28651e-06
1.28636e-06
1.28309e-06
1.28309e-06
1.28309e-06
1.28309e-06
1.28309e-06
1.28309e-06
1.28636e-06
1.28813e-06
1.28824e-06
1.28626e-06
1.28309e-06
1.28309e-06
1.28309e-06
1.28309e-06
1.28309e-06
1.28309e-06
1.28629e-06
1.28786e-06
1.2881e-06
1.28623e-06
1.28309e-06
1.28309e-06
1.28309e-06
1.28309e-06
1.28309e-06
1.28309e-06
1.28625e-06
1.28665e-06
1.28632e-06
1.28309e-06
1.28309e-06
1.28309e-06
1.28309e-06
1.28309e-06
1.28309e-06
1.28632e-06
1.28802e-06
1.28788e-06
1.28588e-06
1.28309e-06
1.28309e-06
1.28309e-06
1.28309e-06
1.28584e-06
1.28648e-06
1.28817e-06
1.28812e-06
1.28651e-06
1.28636e-06
1.28629e-06
1.28625e-06
1.28632e-06
1.28648e-06
1.28815e-06
1.28813e-06
1.28786e-06
1.28665e-06
1.28802e-06
1.28817e-06
1.2718e-06
1.27166e-06
1.27158e-06
1.26992e-06
1.26982e-06
1.26978e-06
1.26988e-06
1.27143e-06
1.27168e-06
1.27158e-06
1.26945e-06
1.26664e-06
1.26664e-06
1.26664e-06
1.26664e-06
1.26943e-06
1.27006e-06
1.26992e-06
1.26664e-06
1.26664e-06
1.26664e-06
1.26664e-06
1.26664e-06
1.26664e-06
1.26992e-06
1.27169e-06
1.2718e-06
1.26982e-06
1.26664e-06
1.26664e-06
1.26664e-06
1.26664e-06
1.26664e-06
1.26664e-06
1.26984e-06
1.27142e-06
1.27166e-06
1.26978e-06
1.26664e-06
1.26664e-06
1.26664e-06
1.26664e-06
1.26664e-06
1.26664e-06
1.26981e-06
1.27021e-06
1.26988e-06
1.26664e-06
1.26664e-06
1.26664e-06
1.26664e-06
1.26664e-06
1.26664e-06
1.26988e-06
1.27157e-06
1.27143e-06
1.26943e-06
1.26664e-06
1.26664e-06
1.26664e-06
1.26664e-06
1.2694e-06
1.27003e-06
1.27173e-06
1.27168e-06
1.27006e-06
1.26992e-06
1.26984e-06
1.26981e-06
1.26988e-06
1.27003e-06
1.2717e-06
1.27169e-06
1.27142e-06
1.2702e-06
1.27158e-06
1.27173e-06
1.25535e-06
1.25521e-06
1.25513e-06
1.25347e-06
1.25338e-06
1.25334e-06
1.25343e-06
1.25499e-06
1.25524e-06
1.25513e-06
1.253e-06
1.2502e-06
1.2502e-06
1.2502e-06
1.2502e-06
1.25299e-06
1.25362e-06
1.25347e-06
1.2502e-06
1.2502e-06
1.2502e-06
1.2502e-06
1.2502e-06
1.2502e-06
1.25348e-06
1.25524e-06
1.25535e-06
1.25338e-06
1.2502e-06
1.2502e-06
1.2502e-06
1.2502e-06
1.2502e-06
1.2502e-06
1.2534e-06
1.25498e-06
1.25521e-06
1.25334e-06
1.2502e-06
1.2502e-06
1.2502e-06
1.2502e-06
1.2502e-06
1.2502e-06
1.25336e-06
1.25376e-06
1.25343e-06
1.2502e-06
1.2502e-06
1.2502e-06
1.2502e-06
1.2502e-06
1.2502e-06
1.25344e-06
1.25513e-06
1.25499e-06
1.25299e-06
1.2502e-06
1.2502e-06
1.2502e-06
1.2502e-06
1.25296e-06
1.25359e-06
1.25529e-06
1.25524e-06
1.25362e-06
1.25348e-06
1.2534e-06
1.25336e-06
1.25344e-06
1.25359e-06
1.25526e-06
1.25524e-06
1.25498e-06
1.25376e-06
1.25513e-06
1.25529e-06
1.23891e-06
1.23877e-06
1.23869e-06
1.23703e-06
1.23694e-06
1.2369e-06
1.23699e-06
1.23855e-06
1.23879e-06
1.23869e-06
1.23656e-06
1.23376e-06
1.23376e-06
1.23376e-06
1.23376e-06
1.23655e-06
1.23718e-06
1.23703e-06
1.23376e-06
1.23376e-06
1.23376e-06
1.23376e-06
1.23376e-06
1.23376e-06
1.23704e-06
1.2388e-06
1.23891e-06
1.23694e-06
1.23376e-06
1.23376e-06
1.23376e-06
1.23376e-06
1.23376e-06
1.23376e-06
1.23696e-06
1.23853e-06
1.23877e-06
1.2369e-06
1.23376e-06
1.23376e-06
1.23376e-06
1.23376e-06
1.23376e-06
1.23376e-06
1.23692e-06
1.23732e-06
1.23699e-06
1.23376e-06
1.23376e-06
1.23376e-06
1.23376e-06
1.23376e-06
1.23376e-06
1.237e-06
1.23869e-06
1.23855e-06
1.23655e-06
1.23376e-06
1.23376e-06
1.23376e-06
1.23376e-06
1.23651e-06
1.23715e-06
1.23884e-06
1.23879e-06
1.23718e-06
1.23704e-06
1.23696e-06
1.23692e-06
1.237e-06
1.23715e-06
1.23882e-06
1.2388e-06
1.23853e-06
1.23732e-06
1.23869e-06
1.23884e-06
1.22247e-06
1.22233e-06
1.22225e-06
1.22059e-06
1.22049e-06
1.22045e-06
1.22055e-06
1.22211e-06
1.22235e-06
1.22225e-06
1.22012e-06
1.21732e-06
1.21732e-06
1.21732e-06
1.21732e-06
1.22011e-06
1.22073e-06
1.22059e-06
1.21732e-06
1.21732e-06
1.21732e-06
1.21732e-06
1.21732e-06
1.21732e-06
1.22059e-06
1.22236e-06
1.22247e-06
1.22049e-06
1.21732e-06
1.21732e-06
1.21732e-06
1.21732e-06
1.21732e-06
1.21732e-06
1.22052e-06
1.22209e-06
1.22233e-06
1.22045e-06
1.21732e-06
1.21732e-06
1.21732e-06
1.21732e-06
1.21732e-06
1.21732e-06
1.22048e-06
1.22088e-06
1.22055e-06
1.21731e-06
1.21732e-06
1.21732e-06
1.21732e-06
1.21732e-06
1.21732e-06
1.22055e-06
1.22225e-06
1.22211e-06
1.22011e-06
1.21731e-06
1.21731e-06
1.21732e-06
1.21732e-06
1.22007e-06
1.2207e-06
1.2224e-06
1.22235e-06
1.22073e-06
1.22059e-06
1.22051e-06
1.22048e-06
1.22055e-06
1.2207e-06
1.22238e-06
1.22236e-06
1.22209e-06
1.22087e-06
1.22225e-06
1.2224e-06
1.20603e-06
1.20589e-06
1.2058e-06
1.20415e-06
1.20405e-06
1.20401e-06
1.2041e-06
1.20566e-06
1.20591e-06
1.2058e-06
1.20368e-06
1.20087e-06
1.20087e-06
1.20087e-06
1.20087e-06
1.20366e-06
1.20429e-06
1.20415e-06
1.20087e-06
1.20087e-06
1.20087e-06
1.20087e-06
1.20087e-06
1.20087e-06
1.20415e-06
1.20592e-06
1.20603e-06
1.20405e-06
1.20087e-06
1.20087e-06
1.20087e-06
1.20087e-06
1.20087e-06
1.20087e-06
1.20407e-06
1.20565e-06
1.20589e-06
1.20401e-06
1.20087e-06
1.20087e-06
1.20087e-06
1.20087e-06
1.20087e-06
1.20087e-06
1.20404e-06
1.20444e-06
1.2041e-06
1.20087e-06
1.20087e-06
1.20087e-06
1.20087e-06
1.20087e-06
1.20087e-06
1.20411e-06
1.2058e-06
1.20566e-06
1.20366e-06
1.20087e-06
1.20087e-06
1.20087e-06
1.20087e-06
1.20363e-06
1.20426e-06
1.20596e-06
1.20591e-06
1.20429e-06
1.20415e-06
1.20407e-06
1.20404e-06
1.20411e-06
1.20426e-06
1.20593e-06
1.20592e-06
1.20565e-06
1.20443e-06
1.2058e-06
1.20596e-06
1.18958e-06
1.18944e-06
1.18936e-06
1.1877e-06
1.18761e-06
1.18757e-06
1.18766e-06
1.18922e-06
1.18947e-06
1.18936e-06
1.18723e-06
1.18443e-06
1.18443e-06
1.18443e-06
1.18443e-06
1.18722e-06
1.18785e-06
1.1877e-06
1.18443e-06
1.18443e-06
1.18443e-06
1.18443e-06
1.18443e-06
1.18443e-06
1.18771e-06
1.18947e-06
1.18958e-06
1.18761e-06
1.18443e-06
1.18443e-06
1.18443e-06
1.18443e-06
1.18443e-06
1.18443e-06
1.18763e-06
1.18921e-06
1.18944e-06
1.18757e-06
1.18443e-06
1.18443e-06
1.18443e-06
1.18443e-06
1.18443e-06
1.18443e-06
1.18759e-06
1.18799e-06
1.18766e-06
1.18443e-06
1.18443e-06
1.18443e-06
1.18443e-06
1.18443e-06
1.18443e-06
1.18767e-06
1.18936e-06
1.18922e-06
1.18722e-06
1.18443e-06
1.18443e-06
1.18443e-06
1.18443e-06
1.18718e-06
1.18782e-06
1.18952e-06
1.18947e-06
1.18785e-06
1.18771e-06
1.18763e-06
1.18759e-06
1.18767e-06
1.18782e-06
1.18949e-06
1.18947e-06
1.18921e-06
1.18799e-06
1.18936e-06
1.18952e-06
1.17314e-06
1.173e-06
1.17292e-06
1.17126e-06
1.17117e-06
1.17113e-06
1.17122e-06
1.17278e-06
1.17302e-06
1.17292e-06
1.17079e-06
1.16799e-06
1.16799e-06
1.16799e-06
1.16799e-06
1.17078e-06
1.17141e-06
1.17126e-06
1.16799e-06
1.16799e-06
1.16799e-06
1.16799e-06
1.16799e-06
1.16799e-06
1.17127e-06
1.17303e-06
1.17314e-06
1.17117e-06
1.16799e-06
1.16799e-06
1.16799e-06
1.16799e-06
1.16799e-06
1.16799e-06
1.17119e-06
1.17276e-06
1.173e-06
1.17113e-06
1.16799e-06
1.16799e-06
1.16799e-06
1.16799e-06
1.16799e-06
1.16799e-06
1.17115e-06
1.17155e-06
1.17122e-06
1.16799e-06
1.16799e-06
1.16799e-06
1.16799e-06
1.16799e-06
1.16799e-06
1.17122e-06
1.17292e-06
1.17278e-06
1.17078e-06
1.16799e-06
1.16799e-06
1.16799e-06
1.16799e-06
1.17074e-06
1.17138e-06
1.17307e-06
1.17302e-06
1.17141e-06
1.17127e-06
1.17119e-06
1.17115e-06
1.17122e-06
1.17138e-06
1.17305e-06
1.17303e-06
1.17276e-06
1.17155e-06
1.17292e-06
1.17307e-06
1.1567e-06
1.15656e-06
1.15648e-06
1.15482e-06
1.15472e-06
1.15468e-06
1.15478e-06
1.15634e-06
1.15658e-06
1.15648e-06
1.15435e-06
1.15154e-06
1.15154e-06
1.15154e-06
1.15154e-06
1.15434e-06
1.15496e-06
1.15482e-06
1.15154e-06
1.15154e-06
1.15154e-06
1.15154e-06
1.15154e-06
1.15154e-06
1.15482e-06
1.15659e-06
1.1567e-06
1.15472e-06
1.15154e-06
1.15154e-06
1.15154e-06
1.15154e-06
1.15154e-06
1.15154e-06
1.15474e-06
1.15632e-06
1.15656e-06
1.15468e-06
1.15154e-06
1.15154e-06
1.15154e-06
1.15154e-06
1.15154e-06
1.15154e-06
1.15471e-06
1.15511e-06
1.15478e-06
1.15154e-06
1.15154e-06
1.15154e-06
1.15154e-06
1.15154e-06
1.15154e-06
1.15478e-06
1.15648e-06
1.15634e-06
1.15433e-06
1.15154e-06
1.15154e-06
1.15154e-06
1.15154e-06
1.1543e-06
1.15493e-06
1.15663e-06
1.15658e-06
1.15496e-06
1.15482e-06
1.15474e-06
1.15471e-06
1.15478e-06
1.15493e-06
1.15661e-06
1.15659e-06
1.15632e-06
1.15511e-06
1.15648e-06
1.15663e-06
1.14026e-06
1.14011e-06
1.14003e-06
1.13838e-06
1.13828e-06
1.13824e-06
1.13833e-06
1.13989e-06
1.14014e-06
1.14003e-06
1.1379e-06
1.1351e-06
1.1351e-06
1.1351e-06
1.1351e-06
1.13789e-06
1.13852e-06
1.13838e-06
1.1351e-06
1.1351e-06
1.1351e-06
1.1351e-06
1.1351e-06
1.1351e-06
1.13838e-06
1.14015e-06
1.14026e-06
1.13828e-06
1.1351e-06
1.1351e-06
1.1351e-06
1.1351e-06
1.1351e-06
1.1351e-06
1.1383e-06
1.13988e-06
1.14011e-06
1.13824e-06
1.1351e-06
1.1351e-06
1.1351e-06
1.1351e-06
1.1351e-06
1.1351e-06
1.13827e-06
1.13866e-06
1.13833e-06
1.1351e-06
1.1351e-06
1.1351e-06
1.1351e-06
1.1351e-06
1.1351e-06
1.13834e-06
1.14003e-06
1.13989e-06
1.13789e-06
1.1351e-06
1.1351e-06
1.1351e-06
1.1351e-06
1.13786e-06
1.13849e-06
1.14019e-06
1.14014e-06
1.13852e-06
1.13838e-06
1.1383e-06
1.13827e-06
1.13834e-06
1.13849e-06
1.14016e-06
1.14015e-06
1.13988e-06
1.13866e-06
1.14003e-06
1.14019e-06
1.12381e-06
1.12367e-06
1.12359e-06
1.12193e-06
1.12184e-06
1.1218e-06
1.12189e-06
1.12345e-06
1.12369e-06
1.12359e-06
1.12146e-06
1.11866e-06
1.11866e-06
1.11866e-06
1.11866e-06
1.12145e-06
1.12208e-06
1.12193e-06
1.11866e-06
1.11866e-06
1.11866e-06
1.11866e-06
1.11866e-06
1.11866e-06
1.12194e-06
1.1237e-06
1.12381e-06
1.12184e-06
1.11866e-06
1.11866e-06
1.11866e-06
1.11866e-06
1.11866e-06
1.11866e-06
1.12186e-06
1.12343e-06
1.12367e-06
1.1218e-06
1.11866e-06
1.11866e-06
1.11866e-06
1.11866e-06
1.11866e-06
1.11866e-06
1.12182e-06
1.12222e-06
1.12189e-06
1.11866e-06
1.11866e-06
1.11866e-06
1.11866e-06
1.11866e-06
1.11866e-06
1.1219e-06
1.12359e-06
1.12345e-06
1.12145e-06
1.11866e-06
1.11866e-06
1.11866e-06
1.11866e-06
1.12141e-06
1.12205e-06
1.12374e-06
1.1237e-06
1.12208e-06
1.12194e-06
1.12186e-06
1.12182e-06
1.1219e-06
1.12205e-06
1.12372e-06
1.1237e-06
1.12344e-06
1.12222e-06
1.12359e-06
1.12374e-06
1.10737e-06
1.10723e-06
1.10715e-06
1.10549e-06
1.10539e-06
1.10536e-06
1.10545e-06
1.10701e-06
1.10725e-06
1.10715e-06
1.10502e-06
1.10222e-06
1.10222e-06
1.10222e-06
1.10222e-06
1.10501e-06
1.10564e-06
1.10549e-06
1.10222e-06
1.10222e-06
1.10222e-06
1.10222e-06
1.10222e-06
1.10222e-06
1.10549e-06
1.10726e-06
1.10737e-06
1.1054e-06
1.10222e-06
1.10222e-06
1.10222e-06
1.10222e-06
1.10222e-06
1.10222e-06
1.10542e-06
1.10699e-06
1.10723e-06
1.10536e-06
1.10222e-06
1.10222e-06
1.10222e-06
1.10222e-06
1.10222e-06
1.10222e-06
1.10538e-06
1.10578e-06
1.10545e-06
1.10222e-06
1.10222e-06
1.10222e-06
1.10222e-06
1.10222e-06
1.10222e-06
1.10545e-06
1.10715e-06
1.10701e-06
1.10501e-06
1.10222e-06
1.10222e-06
1.10222e-06
1.10222e-06
1.10497e-06
1.10561e-06
1.1073e-06
1.10725e-06
1.10564e-06
1.10549e-06
1.10542e-06
1.10538e-06
1.10545e-06
1.10561e-06
1.10728e-06
1.10726e-06
1.10699e-06
1.10578e-06
1.10715e-06
1.1073e-06
1.09093e-06
1.09079e-06
1.09071e-06
1.08905e-06
1.08895e-06
1.08891e-06
1.08901e-06
1.09056e-06
1.09081e-06
1.09071e-06
1.08858e-06
1.08577e-06
1.08577e-06
1.08577e-06
1.08577e-06
1.08856e-06
1.08919e-06
1.08905e-06
1.08577e-06
1.08577e-06
1.08577e-06
1.08577e-06
1.08577e-06
1.08577e-06
1.08905e-06
1.09082e-06
1.09093e-06
1.08896e-06
1.08577e-06
1.08577e-06
1.08577e-06
1.08577e-06
1.08577e-06
1.08577e-06
1.08897e-06
1.09055e-06
1.09078e-06
1.08891e-06
1.08577e-06
1.08577e-06
1.08577e-06
1.08577e-06
1.08577e-06
1.08577e-06
1.08894e-06
1.08934e-06
1.089e-06
1.08577e-06
1.08577e-06
1.08577e-06
1.08577e-06
1.08577e-06
1.08577e-06
1.08901e-06
1.0907e-06
1.09056e-06
1.08856e-06
1.08577e-06
1.08577e-06
1.08577e-06
1.08577e-06
1.08853e-06
1.08916e-06
1.09086e-06
1.09081e-06
1.08919e-06
1.08905e-06
1.08897e-06
1.08894e-06
1.08901e-06
1.08916e-06
1.09084e-06
1.09082e-06
1.09055e-06
1.08934e-06
1.0907e-06
1.09086e-06
1.07449e-06
1.07434e-06
1.07426e-06
1.0726e-06
1.07251e-06
1.07247e-06
1.07256e-06
1.07412e-06
1.07437e-06
1.07426e-06
1.07213e-06
1.06933e-06
1.06933e-06
1.06933e-06
1.06933e-06
1.07212e-06
1.07275e-06
1.07261e-06
1.06933e-06
1.06933e-06
1.06933e-06
1.06933e-06
1.06933e-06
1.06933e-06
1.07261e-06
1.07437e-06
1.07449e-06
1.07251e-06
1.06933e-06
1.06933e-06
1.06933e-06
1.06933e-06
1.06933e-06
1.06933e-06
1.07253e-06
1.07411e-06
1.07434e-06
1.07247e-06
1.06933e-06
1.06933e-06
1.06933e-06
1.06933e-06
1.06933e-06
1.06933e-06
1.07249e-06
1.07289e-06
1.07256e-06
1.06933e-06
1.06933e-06
1.06933e-06
1.06933e-06
1.06933e-06
1.06933e-06
1.07257e-06
1.07426e-06
1.07412e-06
1.07212e-06
1.06933e-06
1.06933e-06
1.06933e-06
1.06933e-06
1.07209e-06
1.07272e-06
1.07442e-06
1.07437e-06
1.07275e-06
1.07261e-06
1.07253e-06
1.07249e-06
1.07257e-06
1.07272e-06
1.07439e-06
1.07437e-06
1.07411e-06
1.07289e-06
1.07426e-06
1.07442e-06
1.05804e-06
1.0579e-06
1.05782e-06
1.05616e-06
1.05607e-06
1.05603e-06
1.05612e-06
1.05768e-06
1.05792e-06
1.05782e-06
1.05569e-06
1.05289e-06
1.05289e-06
1.05289e-06
1.05289e-06
1.05568e-06
1.05631e-06
1.05616e-06
1.05289e-06
1.05289e-06
1.05289e-06
1.05289e-06
1.05289e-06
1.05289e-06
1.05617e-06
1.05793e-06
1.05804e-06
1.05607e-06
1.05289e-06
1.05289e-06
1.05289e-06
1.05289e-06
1.05289e-06
1.05289e-06
1.05609e-06
1.05766e-06
1.0579e-06
1.05603e-06
1.05289e-06
1.05289e-06
1.05289e-06
1.05289e-06
1.05289e-06
1.05289e-06
1.05605e-06
1.05645e-06
1.05612e-06
1.05289e-06
1.05289e-06
1.05289e-06
1.05289e-06
1.05289e-06
1.05289e-06
1.05613e-06
1.05782e-06
1.05768e-06
1.05568e-06
1.05289e-06
1.05289e-06
1.05289e-06
1.05289e-06
1.05564e-06
1.05628e-06
1.05797e-06
1.05792e-06
1.05631e-06
1.05617e-06
1.05609e-06
1.05605e-06