/*--------------------------------*- C++ -*----------------------------------*\
| =========                 |                                                 |
| \\      /  F ield         | OpenFOAM: The Open Source CFD Toolbox           |
|  \\    /   O peration     | Version:  v2012                                 |
|   \\  /    A nd           | Website:  www.openfoam.com                      |
|    \\/     M anipulation  |                                                 |
\*---------------------------------------------------------------------------*/
FoamFile
{
    version     2.0;
    format      ascii;
    class       volScalarField;
    location    "5";
    object      p;
}
// * * * * * * * * * * * * * * * * * * * * * * * * * * * * * * * * * * * * * //

dimensions      [0 2 -2 0 0 0 0];


internalField   nonuniform List<scalar> 
244288
(
1.65111e-06
1.65143e-06
1.6514e-06
1.6512e-06
1.6511e-06
1.65123e-06
1.65141e-06
1.65143e-06
1.65141e-06
1.65119e-06
1.65089e-06
1.65077e-06
1.65092e-06
1.65122e-06
1.65142e-06
1.6514e-06
1.65119e-06
1.65074e-06
1.65035e-06
1.6502e-06
1.65038e-06
1.6508e-06
1.65123e-06
1.65141e-06
1.6512e-06
1.65089e-06
1.65035e-06
1.6499e-06
1.64974e-06
1.64994e-06
1.65041e-06
1.65095e-06
1.65121e-06
1.65111e-06
1.6511e-06
1.65078e-06
1.6502e-06
1.64974e-06
1.64959e-06
1.64979e-06
1.65028e-06
1.65084e-06
1.65111e-06
1.65123e-06
1.65092e-06
1.65038e-06
1.64994e-06
1.64979e-06
1.64998e-06
1.65045e-06
1.65098e-06
1.65124e-06
1.65141e-06
1.65122e-06
1.6508e-06
1.65041e-06
1.65028e-06
1.65045e-06
1.65086e-06
1.65126e-06
1.65142e-06
1.65142e-06
1.65123e-06
1.65095e-06
1.65084e-06
1.65098e-06
1.65126e-06
1.65142e-06
1.65141e-06
1.65121e-06
1.65111e-06
1.65124e-06
1.65142e-06
1.62302e-06
1.62263e-06
1.6222e-06
1.62075e-06
1.62064e-06
1.62063e-06
1.62068e-06
1.62208e-06
1.62223e-06
1.6222e-06
1.62036e-06
1.61789e-06
1.61796e-06
1.61796e-06
1.6179e-06
1.6202e-06
1.62069e-06
1.62075e-06
1.6179e-06
1.61793e-06
1.61799e-06
1.61799e-06
1.61793e-06
1.61789e-06
1.62045e-06
1.62235e-06
1.62302e-06
1.62065e-06
1.61796e-06
1.61799e-06
1.61803e-06
1.61803e-06
1.61798e-06
1.61796e-06
1.62032e-06
1.62216e-06
1.62261e-06
1.62063e-06
1.61796e-06
1.61799e-06
1.61803e-06
1.61803e-06
1.61798e-06
1.61795e-06
1.62029e-06
1.62086e-06
1.62068e-06
1.6179e-06
1.61793e-06
1.61799e-06
1.61799e-06
1.61793e-06
1.61788e-06
1.62036e-06
1.62222e-06
1.62208e-06
1.6202e-06
1.61789e-06
1.61796e-06
1.61796e-06
1.6179e-06
1.61991e-06
1.62063e-06
1.6224e-06
1.62223e-06
1.6207e-06
1.62045e-06
1.62032e-06
1.62029e-06
1.62037e-06
1.62063e-06
1.62224e-06
1.62235e-06
1.62216e-06
1.62086e-06
1.62222e-06
1.6224e-06
1.60554e-06
1.60538e-06
1.60533e-06
1.60364e-06
1.60353e-06
1.60351e-06
1.60357e-06
1.60515e-06
1.60541e-06
1.60533e-06
1.60327e-06
1.60034e-06
1.60034e-06
1.60034e-06
1.60034e-06
1.60312e-06
1.60374e-06
1.60364e-06
1.60034e-06
1.60034e-06
1.60035e-06
1.60035e-06
1.60034e-06
1.60034e-06
1.60346e-06
1.60537e-06
1.60553e-06
1.60353e-06
1.60034e-06
1.60035e-06
1.60036e-06
1.60036e-06
1.60035e-06
1.60034e-06
1.60328e-06
1.60508e-06
1.60538e-06
1.60351e-06
1.60034e-06
1.60035e-06
1.60036e-06
1.60036e-06
1.60035e-06
1.60034e-06
1.60323e-06
1.60386e-06
1.60357e-06
1.60034e-06
1.60034e-06
1.60035e-06
1.60035e-06
1.60034e-06
1.60034e-06
1.60335e-06
1.60521e-06
1.60515e-06
1.60312e-06
1.60034e-06
1.60034e-06
1.60034e-06
1.60034e-06
1.60284e-06
1.60364e-06
1.60543e-06
1.60541e-06
1.60374e-06
1.60346e-06
1.60328e-06
1.60323e-06
1.60335e-06
1.60364e-06
1.60519e-06
1.60537e-06
1.60507e-06
1.60386e-06
1.60521e-06
1.60543e-06
1.58849e-06
1.58833e-06
1.58827e-06
1.58657e-06
1.58646e-06
1.58645e-06
1.58651e-06
1.58809e-06
1.58835e-06
1.58827e-06
1.58614e-06
1.58316e-06
1.58316e-06
1.58316e-06
1.58316e-06
1.58603e-06
1.58667e-06
1.58657e-06
1.58316e-06
1.58316e-06
1.58316e-06
1.58316e-06
1.58316e-06
1.58316e-06
1.58644e-06
1.58832e-06
1.58849e-06
1.58647e-06
1.58316e-06
1.58316e-06
1.58316e-06
1.58316e-06
1.58316e-06
1.58316e-06
1.58631e-06
1.58803e-06
1.58833e-06
1.58645e-06
1.58316e-06
1.58316e-06
1.58316e-06
1.58316e-06
1.58316e-06
1.58316e-06
1.58626e-06
1.58682e-06
1.58651e-06
1.58316e-06
1.58316e-06
1.58316e-06
1.58316e-06
1.58316e-06
1.58316e-06
1.58636e-06
1.58817e-06
1.58809e-06
1.58603e-06
1.58316e-06
1.58316e-06
1.58316e-06
1.58316e-06
1.58582e-06
1.58658e-06
1.58838e-06
1.58835e-06
1.58667e-06
1.58645e-06
1.58631e-06
1.58626e-06
1.58637e-06
1.58658e-06
1.58811e-06
1.58832e-06
1.58803e-06
1.58682e-06
1.58816e-06
1.58839e-06
1.57137e-06
1.57122e-06
1.57115e-06
1.56944e-06
1.56933e-06
1.56931e-06
1.56938e-06
1.57097e-06
1.57123e-06
1.57115e-06
1.569e-06
1.56601e-06
1.56601e-06
1.56601e-06
1.56601e-06
1.56889e-06
1.56955e-06
1.56944e-06
1.56601e-06
1.56601e-06
1.56601e-06
1.56601e-06
1.56601e-06
1.56601e-06
1.56933e-06
1.5712e-06
1.57137e-06
1.56933e-06
1.56601e-06
1.56601e-06
1.56601e-06
1.56601e-06
1.56601e-06
1.56601e-06
1.5692e-06
1.57092e-06
1.57122e-06
1.56932e-06
1.56601e-06
1.56601e-06
1.56601e-06
1.56601e-06
1.56601e-06
1.56601e-06
1.56916e-06
1.5697e-06
1.56938e-06
1.56601e-06
1.56601e-06
1.56601e-06
1.56601e-06
1.56601e-06
1.56601e-06
1.56926e-06
1.57105e-06
1.57097e-06
1.56889e-06
1.56601e-06
1.56601e-06
1.56601e-06
1.56601e-06
1.56871e-06
1.56946e-06
1.57126e-06
1.57123e-06
1.56955e-06
1.56933e-06
1.5692e-06
1.56916e-06
1.56926e-06
1.56946e-06
1.57099e-06
1.5712e-06
1.57092e-06
1.56971e-06
1.57105e-06
1.57127e-06
1.55424e-06
1.55408e-06
1.55401e-06
1.5523e-06
1.55219e-06
1.55218e-06
1.55224e-06
1.55383e-06
1.55409e-06
1.55401e-06
1.55186e-06
1.54886e-06
1.54886e-06
1.54886e-06
1.54886e-06
1.55175e-06
1.55241e-06
1.5523e-06
1.54886e-06
1.54886e-06
1.54886e-06
1.54886e-06
1.54886e-06
1.54886e-06
1.55219e-06
1.55407e-06
1.55424e-06
1.55219e-06
1.54886e-06
1.54886e-06
1.54886e-06
1.54886e-06
1.54886e-06
1.54886e-06
1.55207e-06
1.55378e-06
1.55409e-06
1.55218e-06
1.54886e-06
1.54886e-06
1.54886e-06
1.54886e-06
1.54886e-06
1.54886e-06
1.55203e-06
1.55257e-06
1.55224e-06
1.54886e-06
1.54886e-06
1.54886e-06
1.54886e-06
1.54886e-06
1.54886e-06
1.55212e-06
1.55392e-06
1.55383e-06
1.55175e-06
1.54886e-06
1.54886e-06
1.54886e-06
1.54886e-06
1.55157e-06
1.55233e-06
1.55413e-06
1.55409e-06
1.55241e-06
1.55219e-06
1.55207e-06
1.55203e-06
1.55212e-06
1.55233e-06
1.55385e-06
1.55407e-06
1.55378e-06
1.55257e-06
1.55392e-06
1.55413e-06
1.5371e-06
1.53694e-06
1.53687e-06
1.53516e-06
1.53505e-06
1.53503e-06
1.5351e-06
1.53669e-06
1.53695e-06
1.53687e-06
1.53472e-06
1.53172e-06
1.53172e-06
1.53172e-06
1.53172e-06
1.5346e-06
1.53527e-06
1.53516e-06
1.53172e-06
1.53172e-06
1.53172e-06
1.53172e-06
1.53172e-06
1.53172e-06
1.53505e-06
1.53693e-06
1.5371e-06
1.53505e-06
1.53172e-06
1.53172e-06
1.53172e-06
1.53172e-06
1.53172e-06
1.53172e-06
1.53493e-06
1.53664e-06
1.53695e-06
1.53503e-06
1.53172e-06
1.53172e-06
1.53172e-06
1.53172e-06
1.53172e-06
1.53172e-06
1.53489e-06
1.53543e-06
1.5351e-06
1.53172e-06
1.53172e-06
1.53172e-06
1.53172e-06
1.53172e-06
1.53172e-06
1.53498e-06
1.53677e-06
1.53669e-06
1.53461e-06
1.53172e-06
1.53172e-06
1.53172e-06
1.53172e-06
1.53443e-06
1.53519e-06
1.53699e-06
1.53695e-06
1.53527e-06
1.53505e-06
1.53493e-06
1.53489e-06
1.53498e-06
1.53519e-06
1.53671e-06
1.53693e-06
1.53664e-06
1.53543e-06
1.53677e-06
1.53699e-06
1.51995e-06
1.5198e-06
1.51972e-06
1.51802e-06
1.51791e-06
1.51789e-06
1.51796e-06
1.51955e-06
1.51981e-06
1.51972e-06
1.51757e-06
1.51458e-06
1.51458e-06
1.51458e-06
1.51458e-06
1.51746e-06
1.51813e-06
1.51802e-06
1.51458e-06
1.51458e-06
1.51458e-06
1.51458e-06
1.51458e-06
1.51458e-06
1.51791e-06
1.51978e-06
1.51995e-06
1.51791e-06
1.51458e-06
1.51458e-06
1.51458e-06
1.51458e-06
1.51458e-06
1.51458e-06
1.51779e-06
1.5195e-06
1.5198e-06
1.51789e-06
1.51458e-06
1.51458e-06
1.51458e-06
1.51458e-06
1.51458e-06
1.51458e-06
1.51775e-06
1.51829e-06
1.51796e-06
1.51458e-06
1.51458e-06
1.51458e-06
1.51458e-06
1.51458e-06
1.51458e-06
1.51784e-06
1.51963e-06
1.51955e-06
1.51746e-06
1.51458e-06
1.51458e-06
1.51458e-06
1.51458e-06
1.51729e-06
1.51804e-06
1.51985e-06
1.51981e-06
1.51813e-06
1.51791e-06
1.51779e-06
1.51775e-06
1.51784e-06
1.51804e-06
1.51957e-06
1.51978e-06
1.5195e-06
1.51829e-06
1.51963e-06
1.51985e-06
1.50281e-06
1.50266e-06
1.50258e-06
1.50087e-06
1.50077e-06
1.50075e-06
1.50082e-06
1.50241e-06
1.50266e-06
1.50258e-06
1.50043e-06
1.49743e-06
1.49743e-06
1.49743e-06
1.49743e-06
1.50032e-06
1.50099e-06
1.50087e-06
1.49743e-06
1.49743e-06
1.49743e-06
1.49743e-06
1.49743e-06
1.49743e-06
1.50077e-06
1.50264e-06
1.50281e-06
1.50077e-06
1.49743e-06
1.49743e-06
1.49743e-06
1.49743e-06
1.49743e-06
1.49743e-06
1.50065e-06
1.50236e-06
1.50266e-06
1.50075e-06
1.49743e-06
1.49743e-06
1.49743e-06
1.49743e-06
1.49743e-06
1.49743e-06
1.50061e-06
1.50115e-06
1.50082e-06
1.49743e-06
1.49743e-06
1.49743e-06
1.49743e-06
1.49743e-06
1.49743e-06
1.5007e-06
1.50249e-06
1.50241e-06
1.50032e-06
1.49743e-06
1.49743e-06
1.49743e-06
1.49743e-06
1.50015e-06
1.5009e-06
1.5027e-06
1.50266e-06
1.50099e-06
1.50077e-06
1.50065e-06
1.50061e-06
1.5007e-06
1.5009e-06
1.50242e-06
1.50264e-06
1.50236e-06
1.50115e-06
1.50249e-06
1.5027e-06
1.48567e-06
1.48551e-06
1.48544e-06
1.48373e-06
1.48363e-06
1.48361e-06
1.48368e-06
1.48527e-06
1.48552e-06
1.48544e-06
1.48329e-06
1.48029e-06
1.48029e-06
1.48029e-06
1.48029e-06
1.48318e-06
1.48385e-06
1.48373e-06
1.48029e-06
1.48029e-06
1.48029e-06
1.48029e-06
1.48029e-06
1.48029e-06
1.48363e-06
1.4855e-06
1.48566e-06
1.48363e-06
1.48029e-06
1.48029e-06
1.48029e-06
1.48029e-06
1.48029e-06
1.48029e-06
1.48351e-06
1.48522e-06
1.48552e-06
1.48361e-06
1.48029e-06
1.48029e-06
1.48029e-06
1.48029e-06
1.48029e-06
1.48029e-06
1.48347e-06
1.484e-06
1.48367e-06
1.48029e-06
1.48029e-06
1.48029e-06
1.48029e-06
1.48029e-06
1.48029e-06
1.48356e-06
1.48535e-06
1.48527e-06
1.48318e-06
1.48029e-06
1.48029e-06
1.48029e-06
1.48029e-06
1.48301e-06
1.48376e-06
1.48556e-06
1.48552e-06
1.48385e-06
1.48363e-06
1.48351e-06
1.48347e-06
1.48356e-06
1.48376e-06
1.48528e-06
1.4855e-06
1.48522e-06
1.484e-06
1.48535e-06
1.48556e-06
1.46853e-06
1.46837e-06
1.4683e-06
1.46659e-06
1.46649e-06
1.46647e-06
1.46653e-06
1.46813e-06
1.46838e-06
1.4683e-06
1.46615e-06
1.46315e-06
1.46315e-06
1.46315e-06
1.46315e-06
1.46604e-06
1.4667e-06
1.46659e-06
1.46315e-06
1.46315e-06
1.46315e-06
1.46315e-06
1.46315e-06
1.46315e-06
1.46648e-06
1.46836e-06
1.46853e-06
1.46649e-06
1.46315e-06
1.46315e-06
1.46315e-06
1.46315e-06
1.46315e-06
1.46315e-06
1.46637e-06
1.46808e-06
1.46838e-06
1.46647e-06
1.46315e-06
1.46315e-06
1.46315e-06
1.46315e-06
1.46315e-06
1.46315e-06
1.46633e-06
1.46686e-06
1.46653e-06
1.46315e-06
1.46315e-06
1.46315e-06
1.46315e-06
1.46315e-06
1.46315e-06
1.46642e-06
1.46821e-06
1.46813e-06
1.46604e-06
1.46315e-06
1.46315e-06
1.46315e-06
1.46315e-06
1.46587e-06
1.46662e-06
1.46842e-06
1.46838e-06
1.4667e-06
1.46648e-06
1.46637e-06
1.46633e-06
1.46642e-06
1.46662e-06
1.46814e-06
1.46836e-06
1.46808e-06
1.46686e-06
1.46821e-06
1.46842e-06
1.45139e-06
1.45123e-06
1.45116e-06
1.44945e-06
1.44934e-06
1.44932e-06
1.44939e-06
1.45098e-06
1.45124e-06
1.45116e-06
1.44901e-06
1.44601e-06
1.44601e-06
1.44601e-06
1.44601e-06
1.4489e-06
1.44956e-06
1.44945e-06
1.44601e-06
1.44601e-06
1.44601e-06
1.44601e-06
1.44601e-06
1.44601e-06
1.44934e-06
1.45122e-06
1.45139e-06
1.44934e-06
1.44601e-06
1.44601e-06
1.44601e-06
1.44601e-06
1.44601e-06
1.44601e-06
1.44922e-06
1.45093e-06
1.45123e-06
1.44932e-06
1.44601e-06
1.44601e-06
1.44601e-06
1.44601e-06
1.44601e-06
1.44601e-06
1.44918e-06
1.44972e-06
1.44939e-06
1.44601e-06
1.44601e-06
1.44601e-06
1.44601e-06
1.44601e-06
1.44601e-06
1.44927e-06
1.45107e-06
1.45098e-06
1.4489e-06
1.44601e-06
1.44601e-06
1.44601e-06
1.44601e-06
1.44873e-06
1.44948e-06
1.45128e-06
1.45124e-06
1.44956e-06
1.44934e-06
1.44922e-06
1.44918e-06
1.44928e-06
1.44948e-06
1.451e-06
1.45122e-06
1.45093e-06
1.44972e-06
1.45107e-06
1.45128e-06
1.43425e-06
1.43409e-06
1.43402e-06
1.43231e-06
1.4322e-06
1.43218e-06
1.43225e-06
1.43384e-06
1.4341e-06
1.43402e-06
1.43186e-06
1.42887e-06
1.42887e-06
1.42887e-06
1.42887e-06
1.43175e-06
1.43242e-06
1.43231e-06
1.42887e-06
1.42887e-06
1.42887e-06
1.42887e-06
1.42887e-06
1.42887e-06
1.4322e-06
1.43407e-06
1.43425e-06
1.4322e-06
1.42887e-06
1.42887e-06
1.42887e-06
1.42887e-06
1.42887e-06
1.42887e-06
1.43208e-06
1.43379e-06
1.43409e-06
1.43218e-06
1.42887e-06
1.42887e-06
1.42887e-06
1.42887e-06
1.42887e-06
1.42887e-06
1.43204e-06
1.43258e-06
1.43225e-06
1.42887e-06
1.42887e-06
1.42887e-06
1.42887e-06
1.42887e-06
1.42887e-06
1.43213e-06
1.43392e-06
1.43384e-06
1.43175e-06
1.42887e-06
1.42887e-06
1.42887e-06
1.42887e-06
1.43158e-06
1.43234e-06
1.43414e-06
1.4341e-06
1.43242e-06
1.4322e-06
1.43208e-06
1.43204e-06
1.43213e-06
1.43234e-06
1.43386e-06
1.43408e-06
1.43379e-06
1.43258e-06
1.43393e-06
1.43414e-06
1.4171e-06
1.41695e-06
1.41687e-06
1.41516e-06
1.41506e-06
1.41504e-06
1.41511e-06
1.4167e-06
1.41695e-06
1.41687e-06
1.41472e-06
1.41173e-06
1.41173e-06
1.41173e-06
1.41173e-06
1.41461e-06
1.41528e-06
1.41516e-06
1.41173e-06
1.41173e-06
1.41173e-06
1.41173e-06
1.41173e-06
1.41173e-06
1.41506e-06
1.41693e-06
1.41711e-06
1.41506e-06
1.41173e-06
1.41173e-06
1.41173e-06
1.41173e-06
1.41173e-06
1.41173e-06
1.41494e-06
1.41665e-06
1.41696e-06
1.41504e-06
1.41173e-06
1.41173e-06
1.41173e-06
1.41173e-06
1.41173e-06
1.41173e-06
1.4149e-06
1.41544e-06
1.41511e-06
1.41173e-06
1.41173e-06
1.41173e-06
1.41173e-06
1.41173e-06
1.41173e-06
1.41499e-06
1.41678e-06
1.4167e-06
1.41461e-06
1.41173e-06
1.41173e-06
1.41173e-06
1.41173e-06
1.41444e-06
1.41519e-06
1.41699e-06
1.41695e-06
1.41528e-06
1.41506e-06
1.41494e-06
1.4149e-06
1.41499e-06
1.41519e-06
1.41671e-06
1.41693e-06
1.41665e-06
1.41544e-06
1.41678e-06
1.417e-06
1.39996e-06
1.39981e-06
1.39973e-06
1.39802e-06
1.39792e-06
1.3979e-06
1.39797e-06
1.39956e-06
1.39981e-06
1.39973e-06
1.39758e-06
1.39458e-06
1.39458e-06
1.39458e-06
1.39458e-06
1.39747e-06
1.39814e-06
1.39802e-06
1.39458e-06
1.39458e-06
1.39458e-06
1.39458e-06
1.39458e-06
1.39458e-06
1.39792e-06
1.39979e-06
1.39996e-06
1.39792e-06
1.39458e-06
1.39458e-06
1.39458e-06
1.39458e-06
1.39458e-06
1.39458e-06
1.3978e-06
1.39951e-06
1.39982e-06
1.3979e-06
1.39458e-06
1.39458e-06
1.39458e-06
1.39458e-06
1.39458e-06
1.39458e-06
1.39776e-06
1.3983e-06
1.39797e-06
1.39458e-06
1.39458e-06
1.39458e-06
1.39458e-06
1.39458e-06
1.39458e-06
1.39785e-06
1.39964e-06
1.39956e-06
1.39747e-06
1.39458e-06
1.39458e-06
1.39458e-06
1.39458e-06
1.3973e-06
1.39805e-06
1.39985e-06
1.39981e-06
1.39814e-06
1.39792e-06
1.3978e-06
1.39776e-06
1.39785e-06
1.39805e-06
1.39957e-06
1.39979e-06
1.39951e-06
1.3983e-06
1.39964e-06
1.39985e-06
1.38282e-06
1.38266e-06
1.38259e-06
1.38088e-06
1.38078e-06
1.38076e-06
1.38082e-06
1.38242e-06
1.38267e-06
1.38259e-06
1.38044e-06
1.37744e-06
1.37744e-06
1.37744e-06
1.37744e-06
1.38033e-06
1.38099e-06
1.38088e-06
1.37744e-06
1.37744e-06
1.37744e-06
1.37744e-06
1.37744e-06
1.37744e-06
1.38077e-06
1.38265e-06
1.38282e-06
1.38078e-06
1.37744e-06
1.37744e-06
1.37744e-06
1.37744e-06
1.37744e-06
1.37744e-06
1.38066e-06
1.38237e-06
1.38266e-06
1.38076e-06
1.37744e-06
1.37744e-06
1.37744e-06
1.37744e-06
1.37744e-06
1.37744e-06
1.38061e-06
1.38115e-06
1.38082e-06
1.37744e-06
1.37744e-06
1.37744e-06
1.37744e-06
1.37744e-06
1.37744e-06
1.38071e-06
1.3825e-06
1.38242e-06
1.38033e-06
1.37744e-06
1.37744e-06
1.37744e-06
1.37744e-06
1.38016e-06
1.38091e-06
1.38271e-06
1.38267e-06
1.38099e-06
1.38077e-06
1.38066e-06
1.38062e-06
1.38071e-06
1.38091e-06
1.38243e-06
1.38265e-06
1.38237e-06
1.38115e-06
1.3825e-06
1.38271e-06
1.36568e-06
1.36552e-06
1.36545e-06
1.36374e-06
1.36363e-06
1.36361e-06
1.36368e-06
1.36527e-06
1.36553e-06
1.36545e-06
1.3633e-06
1.3603e-06
1.3603e-06
1.3603e-06
1.3603e-06
1.36319e-06
1.36385e-06
1.36374e-06
1.3603e-06
1.3603e-06
1.3603e-06
1.3603e-06
1.3603e-06
1.3603e-06
1.36363e-06
1.36551e-06
1.36568e-06
1.36363e-06
1.3603e-06
1.3603e-06
1.3603e-06
1.3603e-06
1.3603e-06
1.3603e-06
1.36351e-06
1.36522e-06
1.36552e-06
1.36361e-06
1.3603e-06
1.3603e-06
1.3603e-06
1.3603e-06
1.3603e-06
1.3603e-06
1.36347e-06
1.36401e-06
1.36368e-06
1.3603e-06
1.3603e-06
1.3603e-06
1.3603e-06
1.3603e-06
1.3603e-06
1.36356e-06
1.36536e-06
1.36527e-06
1.36319e-06
1.3603e-06
1.3603e-06
1.3603e-06
1.3603e-06
1.36302e-06
1.36377e-06
1.36557e-06
1.36553e-06
1.36385e-06
1.36363e-06
1.36351e-06
1.36347e-06
1.36357e-06
1.36377e-06
1.36529e-06
1.36551e-06
1.36522e-06
1.36401e-06
1.36536e-06
1.36557e-06
1.34854e-06
1.34838e-06
1.34831e-06
1.3466e-06
1.34649e-06
1.34647e-06
1.34654e-06
1.34813e-06
1.34839e-06
1.34831e-06
1.34615e-06
1.34316e-06
1.34316e-06
1.34316e-06
1.34316e-06
1.34604e-06
1.34671e-06
1.3466e-06
1.34316e-06
1.34316e-06
1.34316e-06
1.34316e-06
1.34316e-06
1.34316e-06
1.34649e-06
1.34836e-06
1.34853e-06
1.34649e-06
1.34316e-06
1.34316e-06
1.34316e-06
1.34316e-06
1.34316e-06
1.34316e-06
1.34637e-06
1.34808e-06
1.34838e-06
1.34647e-06
1.34316e-06
1.34316e-06
1.34316e-06
1.34316e-06
1.34316e-06
1.34316e-06
1.34633e-06
1.34687e-06
1.34654e-06
1.34316e-06
1.34316e-06
1.34316e-06
1.34316e-06
1.34316e-06
1.34316e-06
1.34642e-06
1.34821e-06
1.34813e-06
1.34604e-06
1.34316e-06
1.34316e-06
1.34316e-06
1.34316e-06
1.34587e-06
1.34663e-06
1.34843e-06
1.34839e-06
1.34671e-06
1.34649e-06
1.34637e-06
1.34633e-06
1.34642e-06
1.34663e-06
1.34815e-06
1.34836e-06
1.34808e-06
1.34687e-06
1.34821e-06
1.34843e-06
1.33139e-06
1.33124e-06
1.33116e-06
1.32946e-06
1.32935e-06
1.32933e-06
1.3294e-06
1.33099e-06
1.33124e-06
1.33116e-06
1.32901e-06
1.32602e-06
1.32602e-06
1.32602e-06
1.32602e-06
1.3289e-06
1.32957e-06
1.32946e-06
1.32602e-06
1.32602e-06
1.32602e-06
1.32602e-06
1.32602e-06
1.32602e-06
1.32935e-06
1.33122e-06
1.33139e-06
1.32935e-06
1.32602e-06
1.32602e-06
1.32602e-06
1.32602e-06
1.32602e-06
1.32602e-06
1.32923e-06
1.33094e-06
1.33124e-06
1.32933e-06
1.32602e-06
1.32602e-06
1.32602e-06
1.32602e-06
1.32602e-06
1.32602e-06
1.32919e-06
1.32973e-06
1.3294e-06
1.32602e-06
1.32602e-06
1.32602e-06
1.32602e-06
1.32602e-06
1.32602e-06
1.32928e-06
1.33107e-06
1.33099e-06
1.3289e-06
1.32602e-06
1.32602e-06
1.32602e-06
1.32602e-06
1.32873e-06
1.32948e-06
1.33129e-06
1.33124e-06
1.32957e-06
1.32935e-06
1.32923e-06
1.32919e-06
1.32928e-06
1.32948e-06
1.331e-06
1.33122e-06
1.33094e-06
1.32973e-06
1.33107e-06
1.33129e-06
1.31425e-06
1.3141e-06
1.31402e-06
1.31231e-06
1.31221e-06
1.31219e-06
1.31226e-06
1.31385e-06
1.3141e-06
1.31402e-06
1.31187e-06
1.30887e-06
1.30887e-06
1.30887e-06
1.30887e-06
1.31176e-06
1.31243e-06
1.31231e-06
1.30887e-06
1.30887e-06
1.30887e-06
1.30887e-06
1.30887e-06
1.30887e-06
1.31221e-06
1.31408e-06
1.31425e-06
1.31221e-06
1.30887e-06
1.30887e-06
1.30887e-06
1.30887e-06
1.30887e-06
1.30887e-06
1.31209e-06
1.3138e-06
1.3141e-06
1.31219e-06
1.30887e-06
1.30887e-06
1.30887e-06
1.30887e-06
1.30887e-06
1.30887e-06
1.31205e-06
1.31259e-06
1.31226e-06
1.30887e-06
1.30887e-06
1.30887e-06
1.30887e-06
1.30887e-06
1.30887e-06
1.31214e-06
1.31393e-06
1.31385e-06
1.31176e-06
1.30887e-06
1.30887e-06
1.30887e-06
1.30887e-06
1.31159e-06
1.31234e-06
1.31414e-06
1.3141e-06
1.31243e-06
1.31221e-06
1.31209e-06
1.31205e-06
1.31214e-06
1.31234e-06
1.31386e-06
1.31408e-06
1.3138e-06
1.31259e-06
1.31393e-06
1.31414e-06
1.29711e-06
1.29695e-06
1.29688e-06
1.29517e-06
1.29507e-06
1.29505e-06
1.29511e-06
1.29671e-06
1.29696e-06
1.29688e-06
1.29473e-06
1.29173e-06
1.29173e-06
1.29173e-06
1.29173e-06
1.29462e-06
1.29528e-06
1.29517e-06
1.29173e-06
1.29173e-06
1.29173e-06
1.29173e-06
1.29173e-06
1.29173e-06
1.29506e-06
1.29694e-06
1.29711e-06
1.29507e-06
1.29173e-06
1.29173e-06
1.29173e-06
1.29173e-06
1.29173e-06
1.29173e-06
1.29495e-06
1.29666e-06
1.29695e-06
1.29505e-06
1.29173e-06
1.29173e-06
1.29173e-06
1.29173e-06
1.29173e-06
1.29173e-06
1.2949e-06
1.29544e-06
1.29511e-06
1.29173e-06
1.29173e-06
1.29173e-06
1.29173e-06
1.29173e-06
1.29173e-06
1.295e-06
1.29679e-06
1.29671e-06
1.29462e-06
1.29173e-06
1.29173e-06
1.29173e-06
1.29173e-06
1.29445e-06
1.2952e-06
1.297e-06
1.29696e-06
1.29528e-06
1.29506e-06
1.29495e-06
1.29491e-06
1.295e-06
1.2952e-06
1.29672e-06
1.29694e-06
1.29665e-06
1.29545e-06
1.29679e-06
1.297e-06
1.27997e-06
1.27981e-06
1.27974e-06
1.27803e-06
1.27792e-06
1.2779e-06
1.27797e-06
1.27956e-06
1.27982e-06
1.27974e-06
1.27759e-06
1.27459e-06
1.27459e-06
1.27459e-06
1.27459e-06
1.27748e-06
1.27814e-06
1.27803e-06
1.27459e-06
1.27459e-06
1.27459e-06
1.27459e-06
1.27459e-06
1.27459e-06
1.27792e-06
1.2798e-06
1.27997e-06
1.27792e-06
1.27459e-06
1.27459e-06
1.27459e-06
1.27459e-06
1.27459e-06
1.27459e-06
1.2778e-06
1.27951e-06
1.27981e-06
1.2779e-06
1.27459e-06
1.27459e-06
1.27459e-06
1.27459e-06
1.27459e-06
1.27459e-06
1.27776e-06
1.2783e-06
1.27797e-06
1.27459e-06
1.27459e-06
1.27459e-06
1.27459e-06
1.27459e-06
1.27459e-06
1.27785e-06
1.27965e-06
1.27956e-06
1.27748e-06
1.27459e-06
1.27459e-06
1.27459e-06
1.27459e-06
1.27731e-06
1.27806e-06
1.27986e-06
1.27982e-06
1.27814e-06
1.27792e-06
1.2778e-06
1.27776e-06
1.27785e-06
1.27806e-06
1.27958e-06
1.2798e-06
1.27952e-06
1.2783e-06
1.27965e-06
1.27986e-06
1.26283e-06
1.26267e-06
1.2626e-06
1.26089e-06
1.26078e-06
1.26076e-06
1.26083e-06
1.26242e-06
1.26268e-06
1.2626e-06
1.26044e-06
1.25745e-06
1.25745e-06
1.25745e-06
1.25745e-06
1.26033e-06
1.261e-06
1.26089e-06
1.25745e-06
1.25745e-06
1.25745e-06
1.25745e-06
1.25745e-06
1.25745e-06
1.26078e-06
1.26265e-06
1.26282e-06
1.26078e-06
1.25745e-06
1.25745e-06
1.25745e-06
1.25745e-06
1.25745e-06
1.25745e-06
1.26066e-06
1.26237e-06
1.26267e-06
1.26076e-06
1.25745e-06
1.25745e-06
1.25745e-06
1.25745e-06
1.25745e-06
1.25745e-06
1.26062e-06
1.26116e-06
1.26083e-06
1.25745e-06
1.25745e-06
1.25745e-06
1.25745e-06
1.25745e-06
1.25745e-06
1.26071e-06
1.2625e-06
1.26242e-06
1.26033e-06
1.25745e-06
1.25745e-06
1.25745e-06
1.25745e-06
1.26016e-06
1.26092e-06
1.26272e-06
1.26268e-06
1.261e-06
1.26078e-06
1.26066e-06
1.26062e-06
1.26071e-06
1.26092e-06
1.26244e-06
1.26266e-06
1.26237e-06
1.26116e-06
1.2625e-06
1.26272e-06
1.24568e-06
1.24553e-06
1.24545e-06
1.24375e-06
1.24364e-06
1.24362e-06
1.24369e-06
1.24528e-06
1.24553e-06
1.24545e-06
1.2433e-06
1.24031e-06
1.24031e-06
1.24031e-06
1.24031e-06
1.24319e-06
1.24386e-06
1.24375e-06
1.24031e-06
1.24031e-06
1.24031e-06
1.24031e-06
1.24031e-06
1.24031e-06
1.24364e-06
1.24551e-06
1.24568e-06
1.24364e-06
1.24031e-06
1.24031e-06
1.24031e-06
1.24031e-06
1.24031e-06
1.24031e-06
1.24352e-06
1.24523e-06
1.24553e-06
1.24362e-06
1.24031e-06
1.24031e-06
1.24031e-06
1.24031e-06
1.24031e-06
1.24031e-06
1.24348e-06
1.24402e-06
1.24369e-06
1.24031e-06
1.24031e-06
1.24031e-06
1.24031e-06
1.24031e-06
1.24031e-06
1.24357e-06
1.24536e-06
1.24528e-06
1.24319e-06
1.24031e-06
1.24031e-06
1.24031e-06
1.24031e-06
1.24302e-06
1.24377e-06
1.24557e-06
1.24553e-06
1.24386e-06
1.24364e-06
1.24352e-06
1.24348e-06
1.24357e-06
1.24377e-06
1.24529e-06
1.24551e-06
1.24523e-06
1.24402e-06
1.24536e-06
1.24558e-06
1.22854e-06
1.22839e-06
1.22831e-06
1.2266e-06
1.2265e-06
1.22648e-06
1.22655e-06
1.22814e-06
1.22839e-06
1.22831e-06
1.22616e-06
1.22316e-06
1.22316e-06
1.22316e-06
1.22316e-06
1.22605e-06
1.22672e-06
1.2266e-06
1.22316e-06
1.22316e-06
1.22316e-06
1.22316e-06
1.22316e-06
1.22316e-06
1.2265e-06
1.22837e-06
1.22854e-06
1.2265e-06
1.22316e-06
1.22316e-06
1.22316e-06
1.22316e-06
1.22316e-06
1.22316e-06
1.22638e-06
1.22809e-06
1.22839e-06
1.22648e-06
1.22316e-06
1.22316e-06
1.22316e-06
1.22316e-06
1.22316e-06
1.22316e-06
1.22634e-06
1.22688e-06
1.22655e-06
1.22316e-06
1.22316e-06
1.22316e-06
1.22316e-06
1.22316e-06
1.22316e-06
1.22643e-06
1.22822e-06
1.22814e-06
1.22605e-06
1.22316e-06
1.22316e-06
1.22316e-06
1.22316e-06
1.22588e-06
1.22663e-06
1.22843e-06
1.22839e-06
1.22672e-06
1.2265e-06
1.22638e-06
1.22634e-06
1.22643e-06
1.22663e-06
1.22815e-06
1.22837e-06
1.22808e-06
1.22688e-06
1.22822e-06
1.22843e-06
1.2114e-06
1.21124e-06
1.21117e-06
1.20946e-06
1.20936e-06
1.20934e-06
1.20941e-06
1.211e-06
1.21125e-06
1.21117e-06
1.20902e-06
1.20602e-06
1.20602e-06
1.20602e-06
1.20602e-06
1.20891e-06
1.20958e-06
1.20946e-06
1.20602e-06
1.20602e-06
1.20602e-06
1.20602e-06
1.20602e-06
1.20602e-06
1.20935e-06
1.21123e-06
1.2114e-06
1.20936e-06
1.20602e-06
1.20602e-06
1.20602e-06
1.20602e-06
1.20602e-06
1.20602e-06
1.20924e-06
1.21095e-06
1.21124e-06
1.20934e-06
1.20602e-06
1.20602e-06
1.20602e-06
1.20602e-06
1.20602e-06
1.20602e-06
1.2092e-06
1.20973e-06
1.2094e-06
1.20602e-06
1.20602e-06
1.20602e-06
1.20602e-06
1.20602e-06
1.20602e-06
1.20929e-06
1.21108e-06
1.211e-06
1.20891e-06
1.20602e-06
1.20602e-06
1.20602e-06
1.20602e-06
1.20874e-06
1.20949e-06
1.21129e-06
1.21125e-06
1.20957e-06
1.20935e-06
1.20924e-06
1.2092e-06
1.20929e-06
1.20949e-06
1.21101e-06
1.21123e-06
1.21095e-06
1.20973e-06
1.21108e-06
1.21129e-06
1.19426e-06
1.1941e-06
1.19403e-06
1.19232e-06
1.19221e-06
1.1922e-06
1.19226e-06
1.19385e-06
1.19411e-06
1.19403e-06
1.19188e-06
1.18888e-06
1.18888e-06
1.18888e-06
1.18888e-06
1.19177e-06
1.19243e-06
1.19232e-06
1.18888e-06
1.18888e-06
1.18888e-06
1.18888e-06
1.18888e-06
1.18888e-06
1.19221e-06
1.19409e-06
1.19426e-06
1.19221e-06
1.18888e-06
1.18888e-06
1.18888e-06
1.18888e-06
1.18888e-06
1.18888e-06
1.19209e-06
1.1938e-06
1.1941e-06
1.19219e-06
1.18888e-06
1.18888e-06
1.18888e-06
1.18888e-06
1.18888e-06
1.18888e-06
1.19205e-06
1.19259e-06
1.19226e-06
1.18888e-06
1.18888e-06
1.18888e-06
1.18888e-06
1.18888e-06
1.18888e-06
1.19214e-06
1.19394e-06
1.19385e-06
1.19177e-06
1.18888e-06
1.18888e-06
1.18888e-06
1.18888e-06
1.1916e-06
1.19235e-06
1.19415e-06
1.19411e-06
1.19243e-06
1.19221e-06
1.19209e-06
1.19205e-06
1.19215e-06
1.19235e-06
1.19387e-06
1.19409e-06
1.1938e-06
1.19259e-06
1.19394e-06
1.19415e-06
1.17712e-06
1.17696e-06
1.17689e-06
1.17518e-06
1.17507e-06
1.17505e-06
1.17512e-06
1.17671e-06
1.17697e-06
1.17689e-06
1.17473e-06
1.17174e-06
1.17174e-06
1.17174e-06
1.17174e-06
1.17462e-06
1.17529e-06
1.17518e-06
1.17174e-06
1.17174e-06
1.17174e-06
1.17174e-06
1.17174e-06
1.17174e-06
1.17507e-06
1.17695e-06
1.17712e-06
1.17507e-06
1.17174e-06
1.17174e-06
1.17174e-06
1.17174e-06
1.17174e-06
1.17174e-06
1.17495e-06
1.17666e-06
1.17696e-06
1.17505e-06
1.17174e-06
1.17174e-06
1.17174e-06
1.17174e-06
1.17174e-06
1.17174e-06
1.17491e-06
1.17545e-06
1.17512e-06
1.17174e-06
1.17174e-06
1.17174e-06
1.17174e-06
1.17174e-06
1.17174e-06
1.175e-06
1.17679e-06
1.17671e-06
1.17462e-06
1.17174e-06
1.17174e-06
1.17174e-06
1.17174e-06
1.17445e-06
1.17521e-06
1.17701e-06
1.17697e-06
1.17529e-06
1.17507e-06
1.17495e-06
1.17491e-06
1.175e-06
1.17521e-06
1.17673e-06
1.17695e-06
1.17666e-06
1.17545e-06
1.1768e-06
1.17701e-06
1.15997e-06
1.15982e-06
1.15974e-06
1.15804e-06
1.15793e-06
1.15791e-06
1.15798e-06
1.15957e-06
1.15983e-06
1.15974e-06
1.15759e-06
1.1546e-06
1.1546e-06
1.1546e-06
1.1546e-06
1.15748e-06
1.15815e-06
1.15804e-06
1.1546e-06
1.1546e-06
1.1546e-06
1.1546e-06
1.1546e-06
1.1546e-06
1.15793e-06
1.1598e-06
1.15997e-06
1.15793e-06
1.1546e-06
1.1546e-06
1.1546e-06
1.1546e-06
1.1546e-06
1.1546e-06
1.15781e-06
1.15952e-06
1.15982e-06
1.15791e-06
1.1546e-06
1.1546e-06
1.1546e-06
1.1546e-06
1.1546e-06
1.1546e-06
1.15777e-06
1.15831e-06
1.15798e-06
1.1546e-06
1.1546e-06
1.1546e-06
1.1546e-06
1.1546e-06
1.1546e-06
1.15786e-06
1.15965e-06
1.15957e-06
1.15748e-06
1.1546e-06
1.1546e-06
1.1546e-06
1.1546e-06
1.15731e-06
1.15806e-06
1.15987e-06
1.15982e-06
1.15815e-06
1.15793e-06
1.15781e-06
1.15777e-06
1.15786e-06
1.15806e-06
1.15958e-06
1.1598e-06
1.15952e-06
1.15831e-06
1.15965e-06
1.15987e-06
1.14283e-06
1.14268e-06
1.1426e-06
1.14089e-06
1.14079e-06
1.14077e-06
1.14084e-06
1.14243e-06
1.14268e-06
1.1426e-06
1.14045e-06
1.13745e-06
1.13745e-06
1.13745e-06
1.13745e-06
1.14034e-06
1.14101e-06
1.14089e-06
1.13745e-06
1.13745e-06
1.13745e-06
1.13745e-06
1.13745e-06
1.13745e-06
1.14079e-06
1.14266e-06
1.14283e-06
1.14079e-06
1.13745e-06
1.13745e-06
1.13745e-06
1.13745e-06
1.13745e-06
1.13745e-06
1.14067e-06
1.14238e-06
1.14268e-06
1.14077e-06
1.13745e-06
1.13745e-06
1.13745e-06
1.13745e-06
1.13745e-06
1.13745e-06
1.14063e-06
1.14117e-06
1.14084e-06
1.13745e-06
1.13745e-06
1.13745e-06
1.13745e-06
1.13745e-06
1.13745e-06
1.14072e-06
1.14251e-06
1.14243e-06
1.14034e-06
1.13745e-06
1.13745e-06
1.13745e-06
1.13745e-06
1.14017e-06
1.14092e-06
1.14272e-06
1.14268e-06
1.14101e-06
1.14079e-06
1.14067e-06
1.14063e-06
1.14072e-06
1.14092e-06
1.14244e-06
1.14266e-06
1.14238e-06
1.14117e-06
1.14251e-06
1.14272e-06
1.12569e-06
1.12553e-06
1.12546e-06
1.12375e-06
1.12365e-06
1.12363e-06
1.12369e-06
1.12529e-06
1.12554e-06
1.12546e-06
1.12331e-06
1.12031e-06
1.12031e-06
1.12031e-06
1.12031e-06
1.1232e-06
1.12386e-06
1.12375e-06
1.12031e-06
1.12031e-06
1.12031e-06
1.12031e-06
1.12031e-06
1.12031e-06
1.12364e-06
1.12552e-06
1.12569e-06
1.12365e-06
1.12031e-06
1.12031e-06
1.12031e-06
1.12031e-06
1.12031e-06
1.12031e-06
1.12353e-06
1.12524e-06
1.12553e-06
1.12363e-06
1.12031e-06
1.12031e-06
1.12031e-06
1.12031e-06
1.12031e-06
1.12031e-06
1.12349e-06
1.12402e-06
1.12369e-06
1.12031e-06
1.12031e-06
1.12031e-06
1.12031e-06
1.12031e-06
1.12031e-06
1.12358e-06
1.12537e-06
1.12529e-06
1.1232e-06
1.12031e-06
1.12031e-06
1.12031e-06
1.12031e-06
1.12303e-06
1.12378e-06
1.12558e-06
1.12554e-06
1.12386e-06
1.12364e-06
1.12353e-06
1.12349e-06
1.12358e-06
1.12378e-06
1.1253e-06
1.12552e-06
1.12524e-06
1.12402e-06
1.12537e-06
1.12558e-06
1.10855e-06
1.10839e-06
1.10832e-06
1.10661e-06
1.1065e-06
1.10649e-06
1.10655e-06
1.10814e-06
1.1084e-06
1.10832e-06
1.10617e-06
1.10317e-06
1.10317e-06
1.10317e-06
1.10317e-06
1.10606e-06
1.10672e-06
1.10661e-06
1.10317e-06
1.10317e-06
1.10317e-06
1.10317e-06
1.10317e-06
1.10317e-06
1.1065e-06
1.10838e-06
1.10855e-06
1.10651e-06
1.10317e-06
1.10317e-06
1.10317e-06
1.10317e-06
1.10317e-06
1.10317e-06
1.10638e-06
1.10809e-06
1.10839e-06
1.10649e-06
1.10317e-06
1.10317e-06
1.10317e-06
1.10317e-06
1.10317e-06
1.10317e-06
1.10634e-06
1.10688e-06
1.10655e-06
1.10317e-06
1.10317e-06
1.10317e-06
1.10317e-06
1.10317e-06
1.10317e-06
1.10643e-06
1.10823e-06
1.10814e-06
1.10606e-06
1.10317e-06
1.10317e-06
1.10317e-06
1.10317e-06
1.10589e-06
1.10664e-06
1.10844e-06