/*--------------------------------*- C++ -*----------------------------------*\
| =========                 |                                                 |
| \\      /  F ield         | OpenFOAM: The Open Source CFD Toolbox           |
|  \\    /   O peration     | Version:  v2012                                 |
|   \\  /    A nd           | Website:  www.openfoam.com                      |
|    \\/     M anipulation  |                                                 |
\*---------------------------------------------------------------------------*/
FoamFile
{
    version     2.0;
    format      ascii;
    class       volScalarField;
    location    "5.5";
    object      p;
}
// * * * * * * * * * * * * * * * * * * * * * * * * * * * * * * * * * * * * * //

dimensions      [0 2 -2 0 0 0 0];


internalField   nonuniform List<scalar> 
244288
(
1.64147e-06
1.6418e-06
1.64176e-06
1.64157e-06
1.64147e-06
1.64159e-06
1.64178e-06
1.6418e-06
1.64179e-06
1.64155e-06
1.64125e-06
1.64114e-06
1.64129e-06
1.64159e-06
1.6418e-06
1.64176e-06
1.64155e-06
1.64111e-06
1.64071e-06
1.64057e-06
1.64075e-06
1.64117e-06
1.6416e-06
1.64177e-06
1.64157e-06
1.64125e-06
1.64071e-06
1.64027e-06
1.64011e-06
1.64031e-06
1.64078e-06
1.64131e-06
1.64158e-06
1.64147e-06
1.64147e-06
1.64114e-06
1.64057e-06
1.64011e-06
1.63996e-06
1.64016e-06
1.64064e-06
1.6412e-06
1.64148e-06
1.64159e-06
1.64129e-06
1.64075e-06
1.64031e-06
1.64016e-06
1.64035e-06
1.64082e-06
1.64134e-06
1.6416e-06
1.64178e-06
1.64159e-06
1.64117e-06
1.64078e-06
1.64064e-06
1.64082e-06
1.64123e-06
1.64163e-06
1.64178e-06
1.64179e-06
1.6416e-06
1.64131e-06
1.6412e-06
1.64134e-06
1.64163e-06
1.6418e-06
1.64177e-06
1.64158e-06
1.64148e-06
1.6416e-06
1.64178e-06
1.61385e-06
1.6134e-06
1.61304e-06
1.61159e-06
1.61148e-06
1.61147e-06
1.61152e-06
1.61293e-06
1.6131e-06
1.61304e-06
1.6112e-06
1.6087e-06
1.60875e-06
1.60875e-06
1.6087e-06
1.61107e-06
1.61154e-06
1.61159e-06
1.60871e-06
1.60872e-06
1.60876e-06
1.60876e-06
1.60871e-06
1.6087e-06
1.61131e-06
1.6132e-06
1.61385e-06
1.61148e-06
1.60875e-06
1.60876e-06
1.60881e-06
1.60881e-06
1.60876e-06
1.60875e-06
1.61118e-06
1.61301e-06
1.61341e-06
1.61147e-06
1.60875e-06
1.60876e-06
1.60881e-06
1.60881e-06
1.60876e-06
1.60875e-06
1.61114e-06
1.61171e-06
1.61152e-06
1.6087e-06
1.60871e-06
1.60876e-06
1.60876e-06
1.60871e-06
1.6087e-06
1.61123e-06
1.61307e-06
1.61293e-06
1.61106e-06
1.6087e-06
1.60874e-06
1.60875e-06
1.6087e-06
1.61078e-06
1.61148e-06
1.61324e-06
1.61309e-06
1.61154e-06
1.61131e-06
1.61118e-06
1.61114e-06
1.61122e-06
1.61148e-06
1.61311e-06
1.6132e-06
1.61301e-06
1.61171e-06
1.61306e-06
1.61324e-06
1.59646e-06
1.59631e-06
1.59626e-06
1.59458e-06
1.59447e-06
1.59444e-06
1.59451e-06
1.59609e-06
1.59635e-06
1.59626e-06
1.59421e-06
1.59128e-06
1.59128e-06
1.59128e-06
1.59128e-06
1.59408e-06
1.59469e-06
1.59458e-06
1.59128e-06
1.59128e-06
1.59128e-06
1.59128e-06
1.59128e-06
1.59128e-06
1.59442e-06
1.59631e-06
1.59646e-06
1.59447e-06
1.59128e-06
1.59128e-06
1.59129e-06
1.59129e-06
1.59128e-06
1.59128e-06
1.59424e-06
1.59601e-06
1.59631e-06
1.59444e-06
1.59128e-06
1.59128e-06
1.59129e-06
1.59129e-06
1.59128e-06
1.59128e-06
1.59419e-06
1.59479e-06
1.59451e-06
1.59128e-06
1.59128e-06
1.59128e-06
1.59128e-06
1.59128e-06
1.59128e-06
1.59431e-06
1.59615e-06
1.59609e-06
1.59407e-06
1.59128e-06
1.59128e-06
1.59128e-06
1.59128e-06
1.59382e-06
1.59459e-06
1.59637e-06
1.59635e-06
1.59468e-06
1.59442e-06
1.59423e-06
1.59419e-06
1.59431e-06
1.59459e-06
1.59616e-06
1.59631e-06
1.59601e-06
1.59479e-06
1.59615e-06
1.59637e-06
1.5795e-06
1.57935e-06
1.57928e-06
1.57759e-06
1.57748e-06
1.57746e-06
1.57753e-06
1.57911e-06
1.57936e-06
1.57928e-06
1.57716e-06
1.57419e-06
1.57419e-06
1.57419e-06
1.57419e-06
1.57705e-06
1.5777e-06
1.57759e-06
1.57419e-06
1.57419e-06
1.57419e-06
1.57419e-06
1.57419e-06
1.57419e-06
1.57748e-06
1.57934e-06
1.5795e-06
1.57748e-06
1.57419e-06
1.57419e-06
1.57419e-06
1.57419e-06
1.57419e-06
1.57419e-06
1.57735e-06
1.57905e-06
1.57934e-06
1.57746e-06
1.57419e-06
1.57419e-06
1.57419e-06
1.57419e-06
1.57419e-06
1.57419e-06
1.57731e-06
1.57783e-06
1.57753e-06
1.57419e-06
1.57419e-06
1.57419e-06
1.57419e-06
1.57419e-06
1.57419e-06
1.5774e-06
1.57919e-06
1.57911e-06
1.57705e-06
1.57419e-06
1.57419e-06
1.57419e-06
1.57419e-06
1.57687e-06
1.57761e-06
1.5794e-06
1.57936e-06
1.5777e-06
1.57748e-06
1.57735e-06
1.57731e-06
1.5774e-06
1.57761e-06
1.57916e-06
1.57934e-06
1.57905e-06
1.57783e-06
1.57919e-06
1.5794e-06
1.56247e-06
1.56232e-06
1.56224e-06
1.56054e-06
1.56044e-06
1.56042e-06
1.56049e-06
1.56207e-06
1.56233e-06
1.56224e-06
1.5601e-06
1.55713e-06
1.55713e-06
1.55713e-06
1.55713e-06
1.56e-06
1.56066e-06
1.56054e-06
1.55713e-06
1.55713e-06
1.55713e-06
1.55713e-06
1.55713e-06
1.55713e-06
1.56045e-06
1.56231e-06
1.56247e-06
1.56044e-06
1.55713e-06
1.55713e-06
1.55713e-06
1.55713e-06
1.55713e-06
1.55713e-06
1.56033e-06
1.56202e-06
1.56232e-06
1.56041e-06
1.55713e-06
1.55713e-06
1.55713e-06
1.55713e-06
1.55713e-06
1.55713e-06
1.56029e-06
1.56081e-06
1.56049e-06
1.55713e-06
1.55713e-06
1.55713e-06
1.55713e-06
1.55713e-06
1.55713e-06
1.56038e-06
1.56216e-06
1.56207e-06
1.56e-06
1.55713e-06
1.55713e-06
1.55713e-06
1.55713e-06
1.55984e-06
1.56058e-06
1.56237e-06
1.56233e-06
1.56066e-06
1.56045e-06
1.56033e-06
1.56029e-06
1.56038e-06
1.56058e-06
1.56212e-06
1.56231e-06
1.56202e-06
1.56081e-06
1.56216e-06
1.56237e-06
1.54542e-06
1.54527e-06
1.54519e-06
1.54349e-06
1.54339e-06
1.54336e-06
1.54344e-06
1.54502e-06
1.54528e-06
1.54519e-06
1.54304e-06
1.54007e-06
1.54007e-06
1.54007e-06
1.54007e-06
1.54295e-06
1.54361e-06
1.54349e-06
1.54007e-06
1.54007e-06
1.54007e-06
1.54007e-06
1.54007e-06
1.54007e-06
1.5434e-06
1.54526e-06
1.54542e-06
1.54339e-06
1.54007e-06
1.54007e-06
1.54007e-06
1.54007e-06
1.54007e-06
1.54007e-06
1.54329e-06
1.54498e-06
1.54528e-06
1.54336e-06
1.54007e-06
1.54007e-06
1.54007e-06
1.54007e-06
1.54007e-06
1.54007e-06
1.54324e-06
1.54376e-06
1.54344e-06
1.54007e-06
1.54007e-06
1.54007e-06
1.54007e-06
1.54007e-06
1.54007e-06
1.54333e-06
1.54511e-06
1.54502e-06
1.54295e-06
1.54007e-06
1.54007e-06
1.54007e-06
1.54007e-06
1.54279e-06
1.54353e-06
1.54532e-06
1.54528e-06
1.54361e-06
1.5434e-06
1.54329e-06
1.54324e-06
1.54334e-06
1.54353e-06
1.54507e-06
1.54526e-06
1.54498e-06
1.54376e-06
1.54511e-06
1.54532e-06
1.52837e-06
1.52822e-06
1.52814e-06
1.52644e-06
1.52633e-06
1.52631e-06
1.52638e-06
1.52797e-06
1.52822e-06
1.52814e-06
1.52599e-06
1.52302e-06
1.52302e-06
1.52302e-06
1.52302e-06
1.52589e-06
1.52655e-06
1.52644e-06
1.52302e-06
1.52302e-06
1.52302e-06
1.52302e-06
1.52302e-06
1.52302e-06
1.52635e-06
1.52821e-06
1.52837e-06
1.52633e-06
1.52302e-06
1.52302e-06
1.52302e-06
1.52302e-06
1.52302e-06
1.52302e-06
1.52623e-06
1.52792e-06
1.52823e-06
1.52631e-06
1.52302e-06
1.52302e-06
1.52302e-06
1.52302e-06
1.52302e-06
1.52302e-06
1.52619e-06
1.52671e-06
1.52638e-06
1.52302e-06
1.52302e-06
1.52302e-06
1.52302e-06
1.52302e-06
1.52302e-06
1.52628e-06
1.52806e-06
1.52797e-06
1.52589e-06
1.52302e-06
1.52302e-06
1.52302e-06
1.52302e-06
1.52574e-06
1.52648e-06
1.52827e-06
1.52822e-06
1.52656e-06
1.52635e-06
1.52623e-06
1.52619e-06
1.52628e-06
1.52648e-06
1.52802e-06
1.52821e-06
1.52793e-06
1.52671e-06
1.52806e-06
1.52827e-06
1.51131e-06
1.51116e-06
1.51108e-06
1.50938e-06
1.50928e-06
1.50925e-06
1.50933e-06
1.51092e-06
1.51117e-06
1.51108e-06
1.50893e-06
1.50596e-06
1.50596e-06
1.50596e-06
1.50596e-06
1.50884e-06
1.5095e-06
1.50938e-06
1.50596e-06
1.50596e-06
1.50596e-06
1.50596e-06
1.50596e-06
1.50596e-06
1.50929e-06
1.51115e-06
1.51131e-06
1.50928e-06
1.50596e-06
1.50596e-06
1.50596e-06
1.50596e-06
1.50596e-06
1.50596e-06
1.50918e-06
1.51087e-06
1.51116e-06
1.50925e-06
1.50596e-06
1.50596e-06
1.50596e-06
1.50596e-06
1.50596e-06
1.50596e-06
1.50914e-06
1.50965e-06
1.50933e-06
1.50596e-06
1.50596e-06
1.50596e-06
1.50596e-06
1.50596e-06
1.50596e-06
1.50923e-06
1.51101e-06
1.51092e-06
1.50884e-06
1.50596e-06
1.50596e-06
1.50596e-06
1.50596e-06
1.50869e-06
1.50942e-06
1.51121e-06
1.51117e-06
1.5095e-06
1.50929e-06
1.50918e-06
1.50914e-06
1.50923e-06
1.50942e-06
1.51096e-06
1.51115e-06
1.51087e-06
1.50965e-06
1.51101e-06
1.51121e-06
1.49426e-06
1.49411e-06
1.49403e-06
1.49233e-06
1.49222e-06
1.4922e-06
1.49227e-06
1.49386e-06
1.49411e-06
1.49403e-06
1.49188e-06
1.48891e-06
1.48891e-06
1.48891e-06
1.48891e-06
1.49179e-06
1.49245e-06
1.49233e-06
1.48891e-06
1.48891e-06
1.48891e-06
1.48891e-06
1.48891e-06
1.48891e-06
1.49224e-06
1.4941e-06
1.49426e-06
1.49222e-06
1.48891e-06
1.48891e-06
1.48891e-06
1.48891e-06
1.48891e-06
1.48891e-06
1.49213e-06
1.49382e-06
1.49411e-06
1.4922e-06
1.48891e-06
1.48891e-06
1.48891e-06
1.48891e-06
1.48891e-06
1.48891e-06
1.49208e-06
1.4926e-06
1.49227e-06
1.48891e-06
1.48891e-06
1.48891e-06
1.48891e-06
1.48891e-06
1.48891e-06
1.49217e-06
1.49395e-06
1.49386e-06
1.49179e-06
1.48891e-06
1.48891e-06
1.48891e-06
1.48891e-06
1.49163e-06
1.49237e-06
1.49416e-06
1.49411e-06
1.49245e-06
1.49224e-06
1.49213e-06
1.49209e-06
1.49217e-06
1.49237e-06
1.49391e-06
1.4941e-06
1.49382e-06
1.4926e-06
1.49395e-06
1.49416e-06
1.47721e-06
1.47705e-06
1.47698e-06
1.47527e-06
1.47517e-06
1.47515e-06
1.47522e-06
1.47681e-06
1.47706e-06
1.47698e-06
1.47483e-06
1.47185e-06
1.47185e-06
1.47185e-06
1.47185e-06
1.47473e-06
1.47539e-06
1.47527e-06
1.47185e-06
1.47185e-06
1.47185e-06
1.47185e-06
1.47185e-06
1.47185e-06
1.47518e-06
1.47704e-06
1.4772e-06
1.47517e-06
1.47185e-06
1.47185e-06
1.47185e-06
1.47185e-06
1.47185e-06
1.47185e-06
1.47507e-06
1.47676e-06
1.47706e-06
1.47515e-06
1.47185e-06
1.47185e-06
1.47185e-06
1.47185e-06
1.47185e-06
1.47185e-06
1.47503e-06
1.47554e-06
1.47522e-06
1.47185e-06
1.47185e-06
1.47185e-06
1.47185e-06
1.47185e-06
1.47185e-06
1.47512e-06
1.4769e-06
1.47681e-06
1.47473e-06
1.47185e-06
1.47185e-06
1.47185e-06
1.47185e-06
1.47458e-06
1.47532e-06
1.4771e-06
1.47706e-06
1.47539e-06
1.47518e-06
1.47507e-06
1.47503e-06
1.47512e-06
1.47532e-06
1.47685e-06
1.47704e-06
1.47676e-06
1.47554e-06
1.4769e-06
1.4771e-06
1.46015e-06
1.46e-06
1.45992e-06
1.45822e-06
1.45811e-06
1.45809e-06
1.45816e-06
1.45975e-06
1.46e-06
1.45992e-06
1.45777e-06
1.4548e-06
1.4548e-06
1.4548e-06
1.4548e-06
1.45768e-06
1.45834e-06
1.45822e-06
1.4548e-06
1.4548e-06
1.4548e-06
1.4548e-06
1.4548e-06
1.4548e-06
1.45813e-06
1.45999e-06
1.46015e-06
1.45811e-06
1.4548e-06
1.4548e-06
1.4548e-06
1.4548e-06
1.4548e-06
1.4548e-06
1.45802e-06
1.45971e-06
1.46e-06
1.45809e-06
1.4548e-06
1.4548e-06
1.4548e-06
1.4548e-06
1.4548e-06
1.4548e-06
1.45798e-06
1.45849e-06
1.45816e-06
1.4548e-06
1.4548e-06
1.4548e-06
1.4548e-06
1.4548e-06
1.4548e-06
1.45806e-06
1.45984e-06
1.45975e-06
1.45768e-06
1.4548e-06
1.4548e-06
1.4548e-06
1.4548e-06
1.45753e-06
1.45826e-06
1.46005e-06
1.46e-06
1.45834e-06
1.45813e-06
1.45802e-06
1.45798e-06
1.45807e-06
1.45826e-06
1.4598e-06
1.45999e-06
1.45971e-06
1.45849e-06
1.45984e-06
1.46005e-06
1.4431e-06
1.44294e-06
1.44287e-06
1.44116e-06
1.44106e-06
1.44104e-06
1.44111e-06
1.4427e-06
1.44295e-06
1.44287e-06
1.44072e-06
1.43774e-06
1.43774e-06
1.43774e-06
1.43774e-06
1.44062e-06
1.44128e-06
1.44116e-06
1.43774e-06
1.43774e-06
1.43774e-06
1.43774e-06
1.43774e-06
1.43774e-06
1.44107e-06
1.44293e-06
1.4431e-06
1.44106e-06
1.43774e-06
1.43774e-06
1.43774e-06
1.43774e-06
1.43774e-06
1.43774e-06
1.44096e-06
1.44265e-06
1.44294e-06
1.44104e-06
1.43774e-06
1.43774e-06
1.43774e-06
1.43774e-06
1.43774e-06
1.43774e-06
1.44092e-06
1.44144e-06
1.44111e-06
1.43774e-06
1.43774e-06
1.43774e-06
1.43774e-06
1.43774e-06
1.43774e-06
1.44101e-06
1.44279e-06
1.4427e-06
1.44062e-06
1.43774e-06
1.43774e-06
1.43774e-06
1.43774e-06
1.44047e-06
1.44121e-06
1.44299e-06
1.44295e-06
1.44128e-06
1.44107e-06
1.44096e-06
1.44092e-06
1.44101e-06
1.44121e-06
1.44274e-06
1.44293e-06
1.44265e-06
1.44143e-06
1.44279e-06
1.44299e-06
1.42604e-06
1.42589e-06
1.42581e-06
1.42411e-06
1.424e-06
1.42398e-06
1.42405e-06
1.42564e-06
1.4259e-06
1.42581e-06
1.42366e-06
1.42069e-06
1.42069e-06
1.42069e-06
1.42069e-06
1.42357e-06
1.42423e-06
1.42411e-06
1.42069e-06
1.42069e-06
1.42069e-06
1.42069e-06
1.42069e-06
1.42069e-06
1.42402e-06
1.42588e-06
1.42604e-06
1.424e-06
1.42069e-06
1.42069e-06
1.42069e-06
1.42069e-06
1.42069e-06
1.42069e-06
1.42391e-06
1.4256e-06
1.42589e-06
1.42398e-06
1.42069e-06
1.42069e-06
1.42069e-06
1.42069e-06
1.42069e-06
1.42069e-06
1.42387e-06
1.42438e-06
1.42405e-06
1.42069e-06
1.42069e-06
1.42069e-06
1.42069e-06
1.42069e-06
1.42069e-06
1.42396e-06
1.42573e-06
1.42564e-06
1.42357e-06
1.42069e-06
1.42069e-06
1.42069e-06
1.42069e-06
1.42342e-06
1.42415e-06
1.42594e-06
1.4259e-06
1.42423e-06
1.42402e-06
1.42391e-06
1.42387e-06
1.42396e-06
1.42415e-06
1.42569e-06
1.42588e-06
1.4256e-06
1.42438e-06
1.42573e-06
1.42594e-06
1.40899e-06
1.40884e-06
1.40876e-06
1.40705e-06
1.40695e-06
1.40693e-06
1.407e-06
1.40859e-06
1.40884e-06
1.40876e-06
1.40661e-06
1.40364e-06
1.40364e-06
1.40364e-06
1.40364e-06
1.40651e-06
1.40717e-06
1.40705e-06
1.40364e-06
1.40364e-06
1.40364e-06
1.40364e-06
1.40364e-06
1.40364e-06
1.40696e-06
1.40883e-06
1.40899e-06
1.40695e-06
1.40364e-06
1.40364e-06
1.40364e-06
1.40364e-06
1.40364e-06
1.40364e-06
1.40685e-06
1.40854e-06
1.40884e-06
1.40693e-06
1.40364e-06
1.40364e-06
1.40364e-06
1.40364e-06
1.40364e-06
1.40364e-06
1.40681e-06
1.40733e-06
1.407e-06
1.40364e-06
1.40364e-06
1.40364e-06
1.40364e-06
1.40364e-06
1.40364e-06
1.4069e-06
1.40868e-06
1.40859e-06
1.40651e-06
1.40364e-06
1.40364e-06
1.40364e-06
1.40364e-06
1.40636e-06
1.4071e-06
1.40888e-06
1.40884e-06
1.40717e-06
1.40696e-06
1.40685e-06
1.40681e-06
1.4069e-06
1.4071e-06
1.40864e-06
1.40883e-06
1.40854e-06
1.40733e-06
1.40868e-06
1.40888e-06
1.39193e-06
1.39178e-06
1.3917e-06
1.39e-06
1.3899e-06
1.38987e-06
1.38995e-06
1.39153e-06
1.39179e-06
1.3917e-06
1.38955e-06
1.38658e-06
1.38658e-06
1.38658e-06
1.38658e-06
1.38946e-06
1.39012e-06
1.39e-06
1.38658e-06
1.38658e-06
1.38658e-06
1.38658e-06
1.38658e-06
1.38658e-06
1.38991e-06
1.39177e-06
1.39193e-06
1.3899e-06
1.38658e-06
1.38658e-06
1.38658e-06
1.38658e-06
1.38658e-06
1.38658e-06
1.3898e-06
1.39149e-06
1.39179e-06
1.38987e-06
1.38658e-06
1.38658e-06
1.38658e-06
1.38658e-06
1.38658e-06
1.38658e-06
1.38976e-06
1.39027e-06
1.38995e-06
1.38658e-06
1.38658e-06
1.38658e-06
1.38658e-06
1.38658e-06
1.38658e-06
1.38985e-06
1.39163e-06
1.39154e-06
1.38946e-06
1.38658e-06
1.38658e-06
1.38658e-06
1.38658e-06
1.38931e-06
1.39004e-06
1.39183e-06
1.39179e-06
1.39012e-06
1.38991e-06
1.3898e-06
1.38976e-06
1.38985e-06
1.39004e-06
1.39158e-06
1.39177e-06
1.39149e-06
1.39027e-06
1.39163e-06
1.39183e-06
1.37488e-06
1.37473e-06
1.37465e-06
1.37295e-06
1.37284e-06
1.37282e-06
1.37289e-06
1.37448e-06
1.37473e-06
1.37465e-06
1.3725e-06
1.36953e-06
1.36953e-06
1.36953e-06
1.36953e-06
1.3724e-06
1.37307e-06
1.37295e-06
1.36953e-06
1.36953e-06
1.36953e-06
1.36953e-06
1.36953e-06
1.36953e-06
1.37286e-06
1.37472e-06
1.37488e-06
1.37284e-06
1.36953e-06
1.36953e-06
1.36953e-06
1.36953e-06
1.36953e-06
1.36953e-06
1.37274e-06
1.37444e-06
1.37473e-06
1.37282e-06
1.36953e-06
1.36953e-06
1.36953e-06
1.36953e-06
1.36953e-06
1.36953e-06
1.3727e-06
1.37322e-06
1.37289e-06
1.36953e-06
1.36953e-06
1.36953e-06
1.36953e-06
1.36953e-06
1.36953e-06
1.37279e-06
1.37457e-06
1.37448e-06
1.3724e-06
1.36953e-06
1.36953e-06
1.36953e-06
1.36953e-06
1.37225e-06
1.37299e-06
1.37478e-06
1.37473e-06
1.37307e-06
1.37286e-06
1.37274e-06
1.3727e-06
1.37279e-06
1.37299e-06
1.37453e-06
1.37472e-06
1.37444e-06
1.37322e-06
1.37457e-06
1.37478e-06
1.35783e-06
1.35767e-06
1.35759e-06
1.35589e-06
1.35579e-06
1.35576e-06
1.35584e-06
1.35743e-06
1.35768e-06
1.35759e-06
1.35544e-06
1.35247e-06
1.35247e-06
1.35247e-06
1.35247e-06
1.35535e-06
1.35601e-06
1.35589e-06
1.35247e-06
1.35247e-06
1.35247e-06
1.35247e-06
1.35247e-06
1.35247e-06
1.3558e-06
1.35766e-06
1.35782e-06
1.35579e-06
1.35247e-06
1.35247e-06
1.35247e-06
1.35247e-06
1.35247e-06
1.35247e-06
1.35569e-06
1.35738e-06
1.35767e-06
1.35576e-06
1.35247e-06
1.35247e-06
1.35247e-06
1.35247e-06
1.35247e-06
1.35247e-06
1.35565e-06
1.35616e-06
1.35584e-06
1.35247e-06
1.35247e-06
1.35247e-06
1.35247e-06
1.35247e-06
1.35247e-06
1.35574e-06
1.35752e-06
1.35743e-06
1.35535e-06
1.35247e-06
1.35247e-06
1.35247e-06
1.35247e-06
1.3552e-06
1.35594e-06
1.35772e-06
1.35768e-06
1.35601e-06
1.3558e-06
1.35569e-06
1.35565e-06
1.35574e-06
1.35593e-06
1.35747e-06
1.35766e-06
1.35738e-06
1.35616e-06
1.35752e-06
1.35772e-06
1.34077e-06
1.34062e-06
1.34054e-06
1.33884e-06
1.33873e-06
1.33871e-06
1.33878e-06
1.34037e-06
1.34062e-06
1.34054e-06
1.33839e-06
1.33542e-06
1.33542e-06
1.33542e-06
1.33542e-06
1.3383e-06
1.33896e-06
1.33884e-06
1.33542e-06
1.33542e-06
1.33542e-06
1.33542e-06
1.33542e-06
1.33542e-06
1.33875e-06
1.34061e-06
1.34077e-06
1.33873e-06
1.33542e-06
1.33542e-06
1.33542e-06
1.33542e-06
1.33542e-06
1.33542e-06
1.33864e-06
1.34033e-06
1.34062e-06
1.33871e-06
1.33542e-06
1.33542e-06
1.33542e-06
1.33542e-06
1.33542e-06
1.33542e-06
1.3386e-06
1.33911e-06
1.33878e-06
1.33542e-06
1.33542e-06
1.33542e-06
1.33542e-06
1.33542e-06
1.33542e-06
1.33868e-06
1.34046e-06
1.34037e-06
1.3383e-06
1.33542e-06
1.33542e-06
1.33542e-06
1.33542e-06
1.33815e-06
1.33888e-06
1.34067e-06
1.34062e-06
1.33896e-06
1.33875e-06
1.33864e-06
1.3386e-06
1.33869e-06
1.33888e-06
1.34042e-06
1.34061e-06
1.34033e-06
1.33911e-06
1.34046e-06
1.34067e-06
1.32372e-06
1.32357e-06
1.32349e-06
1.32178e-06
1.32168e-06
1.32166e-06
1.32173e-06
1.32332e-06
1.32357e-06
1.32349e-06
1.32134e-06
1.31836e-06
1.31836e-06
1.31836e-06
1.31836e-06
1.32124e-06
1.3219e-06
1.32178e-06
1.31836e-06
1.31836e-06
1.31836e-06
1.31836e-06
1.31836e-06
1.31836e-06
1.32169e-06
1.32355e-06
1.32372e-06
1.32168e-06
1.31836e-06
1.31836e-06
1.31836e-06
1.31836e-06
1.31836e-06
1.31836e-06
1.32158e-06
1.32327e-06
1.32356e-06
1.32166e-06
1.31836e-06
1.31836e-06
1.31836e-06
1.31836e-06
1.31836e-06
1.31836e-06
1.32154e-06
1.32206e-06
1.32173e-06
1.31836e-06
1.31836e-06
1.31836e-06
1.31836e-06
1.31836e-06
1.31836e-06
1.32163e-06
1.32341e-06
1.32332e-06
1.32124e-06
1.31836e-06
1.31836e-06
1.31836e-06
1.31836e-06
1.32109e-06
1.32183e-06
1.32361e-06
1.32357e-06
1.3219e-06
1.32169e-06
1.32158e-06
1.32154e-06
1.32163e-06
1.32183e-06
1.32336e-06
1.32355e-06
1.32327e-06
1.32205e-06
1.32341e-06
1.32361e-06
1.30666e-06
1.30651e-06
1.30643e-06
1.30473e-06
1.30463e-06
1.3046e-06
1.30468e-06
1.30626e-06
1.30652e-06
1.30643e-06
1.30428e-06
1.30131e-06
1.30131e-06
1.30131e-06
1.30131e-06
1.30419e-06
1.30485e-06
1.30473e-06
1.30131e-06
1.30131e-06
1.30131e-06
1.30131e-06
1.30131e-06
1.30131e-06
1.30464e-06
1.3065e-06
1.30666e-06
1.30463e-06
1.30131e-06
1.30131e-06
1.30131e-06
1.30131e-06
1.30131e-06
1.30131e-06
1.30453e-06
1.30622e-06
1.30651e-06
1.3046e-06
1.30131e-06
1.30131e-06
1.30131e-06
1.30131e-06
1.30131e-06
1.30131e-06
1.30449e-06
1.305e-06
1.30467e-06
1.30131e-06
1.30131e-06
1.30131e-06
1.30131e-06
1.30131e-06
1.30131e-06
1.30458e-06
1.30635e-06
1.30626e-06
1.30419e-06
1.30131e-06
1.30131e-06
1.30131e-06
1.30131e-06
1.30404e-06
1.30477e-06
1.30656e-06
1.30652e-06
1.30485e-06
1.30464e-06
1.30453e-06
1.30449e-06
1.30458e-06
1.30477e-06
1.30631e-06
1.3065e-06
1.30622e-06
1.305e-06
1.30636e-06
1.30656e-06
1.28961e-06
1.28946e-06
1.28938e-06
1.28768e-06
1.28757e-06
1.28755e-06
1.28762e-06
1.28921e-06
1.28946e-06
1.28938e-06
1.28723e-06
1.28426e-06
1.28426e-06
1.28426e-06
1.28426e-06
1.28713e-06
1.28779e-06
1.28768e-06
1.28426e-06
1.28426e-06
1.28426e-06
1.28426e-06
1.28426e-06
1.28426e-06
1.28758e-06
1.28945e-06
1.28961e-06
1.28757e-06
1.28426e-06
1.28426e-06
1.28426e-06
1.28426e-06
1.28426e-06
1.28426e-06
1.28747e-06
1.28916e-06
1.28946e-06
1.28755e-06
1.28426e-06
1.28426e-06
1.28426e-06
1.28426e-06
1.28426e-06
1.28426e-06
1.28743e-06
1.28795e-06
1.28762e-06
1.28426e-06
1.28426e-06
1.28426e-06
1.28426e-06
1.28426e-06
1.28426e-06
1.28752e-06
1.2893e-06
1.28921e-06
1.28713e-06
1.28426e-06
1.28426e-06
1.28426e-06
1.28426e-06
1.28698e-06
1.28772e-06
1.2895e-06
1.28946e-06
1.28779e-06
1.28759e-06
1.28747e-06
1.28743e-06
1.28752e-06
1.28772e-06
1.28926e-06
1.28945e-06
1.28916e-06
1.28795e-06
1.2893e-06
1.2895e-06
1.27255e-06
1.2724e-06
1.27232e-06
1.27062e-06
1.27052e-06
1.27049e-06
1.27057e-06
1.27216e-06
1.27241e-06
1.27232e-06
1.27017e-06
1.2672e-06
1.2672e-06
1.2672e-06
1.2672e-06
1.27008e-06
1.27074e-06
1.27062e-06
1.2672e-06
1.2672e-06
1.2672e-06
1.2672e-06
1.2672e-06
1.2672e-06
1.27053e-06
1.27239e-06
1.27255e-06
1.27052e-06
1.2672e-06
1.2672e-06
1.2672e-06
1.2672e-06
1.2672e-06
1.2672e-06
1.27042e-06
1.27211e-06
1.2724e-06
1.27049e-06
1.2672e-06
1.2672e-06
1.2672e-06
1.2672e-06
1.2672e-06
1.2672e-06
1.27038e-06
1.27089e-06
1.27057e-06
1.2672e-06
1.2672e-06
1.2672e-06
1.2672e-06
1.2672e-06
1.2672e-06
1.27047e-06
1.27225e-06
1.27216e-06
1.27008e-06
1.2672e-06
1.2672e-06
1.2672e-06
1.2672e-06
1.26993e-06
1.27066e-06
1.27245e-06
1.27241e-06
1.27074e-06
1.27053e-06
1.27042e-06
1.27038e-06
1.27047e-06
1.27066e-06
1.2722e-06
1.27239e-06
1.27211e-06
1.27089e-06
1.27225e-06
1.27245e-06
1.2555e-06
1.25535e-06
1.25527e-06
1.25357e-06
1.25346e-06
1.25344e-06
1.25351e-06
1.2551e-06
1.25535e-06
1.25527e-06
1.25312e-06
1.25015e-06
1.25015e-06
1.25015e-06
1.25015e-06
1.25302e-06
1.25368e-06
1.25357e-06
1.25015e-06
1.25015e-06
1.25015e-06
1.25015e-06
1.25015e-06
1.25015e-06
1.25348e-06
1.25534e-06
1.2555e-06
1.25346e-06
1.25015e-06
1.25015e-06
1.25015e-06
1.25015e-06
1.25015e-06
1.25015e-06
1.25336e-06
1.25505e-06
1.25535e-06
1.25344e-06
1.25015e-06
1.25015e-06
1.25015e-06
1.25015e-06
1.25015e-06
1.25015e-06
1.25332e-06
1.25384e-06
1.25351e-06
1.25015e-06
1.25015e-06
1.25015e-06
1.25015e-06
1.25015e-06
1.25015e-06
1.25341e-06
1.25519e-06
1.2551e-06
1.25302e-06
1.25015e-06
1.25015e-06
1.25015e-06
1.25015e-06
1.25287e-06
1.25361e-06
1.2554e-06
1.25535e-06
1.25368e-06
1.25348e-06
1.25336e-06
1.25332e-06
1.25341e-06
1.25361e-06
1.25515e-06
1.25534e-06
1.25506e-06
1.25384e-06
1.25519e-06
1.2554e-06
1.23844e-06
1.23829e-06
1.23821e-06
1.23651e-06
1.23641e-06
1.23638e-06
1.23646e-06
1.23805e-06
1.2383e-06
1.23821e-06
1.23606e-06
1.23309e-06
1.23309e-06
1.23309e-06
1.23309e-06
1.23597e-06
1.23663e-06
1.23651e-06
1.23309e-06
1.23309e-06
1.23309e-06
1.23309e-06
1.23309e-06
1.23309e-06
1.23642e-06
1.23828e-06
1.23844e-06
1.23641e-06
1.23309e-06
1.23309e-06
1.23309e-06
1.23309e-06
1.23309e-06
1.23309e-06
1.23631e-06
1.238e-06
1.23829e-06
1.23638e-06
1.23309e-06
1.23309e-06
1.23309e-06
1.23309e-06
1.23309e-06
1.23309e-06
1.23627e-06
1.23678e-06
1.23646e-06
1.23309e-06
1.23309e-06
1.23309e-06
1.23309e-06
1.23309e-06
1.23309e-06
1.23636e-06
1.23814e-06
1.23805e-06
1.23597e-06
1.23309e-06
1.23309e-06
1.23309e-06
1.23309e-06
1.23582e-06
1.23655e-06
1.23834e-06
1.2383e-06
1.23663e-06
1.23642e-06
1.23631e-06
1.23627e-06
1.23636e-06
1.23655e-06
1.23809e-06
1.23828e-06
1.238e-06
1.23678e-06
1.23814e-06
1.23834e-06
1.22139e-06
1.22124e-06
1.22116e-06
1.21946e-06
1.21935e-06
1.21933e-06
1.2194e-06
1.22099e-06
1.22124e-06
1.22116e-06
1.21901e-06
1.21604e-06
1.21604e-06
1.21604e-06
1.21604e-06
1.21891e-06
1.21958e-06
1.21946e-06
1.21604e-06
1.21604e-06
1.21604e-06
1.21604e-06
1.21604e-06
1.21604e-06
1.21937e-06
1.22123e-06
1.22139e-06
1.21935e-06
1.21604e-06
1.21604e-06
1.21604e-06
1.21604e-06
1.21604e-06
1.21604e-06
1.21926e-06
1.22095e-06
1.22124e-06
1.21933e-06
1.21604e-06
1.21604e-06
1.21604e-06
1.21604e-06
1.21604e-06
1.21604e-06
1.21921e-06
1.21973e-06
1.2194e-06
1.21604e-06
1.21604e-06
1.21604e-06
1.21604e-06
1.21604e-06
1.21604e-06
1.2193e-06
1.22108e-06
1.22099e-06
1.21891e-06
1.21604e-06
1.21604e-06
1.21604e-06
1.21604e-06
1.21876e-06
1.2195e-06
1.22129e-06
1.22124e-06
1.21958e-06
1.21937e-06
1.21926e-06
1.21922e-06
1.2193e-06
1.2195e-06
1.22104e-06
1.22123e-06
1.22094e-06
1.21973e-06
1.22108e-06
1.22129e-06
1.20434e-06
1.20418e-06
1.20411e-06
1.2024e-06
1.2023e-06
1.20228e-06
1.20235e-06
1.20394e-06
1.20419e-06
1.20411e-06
1.20196e-06
1.19898e-06
1.19898e-06
1.19898e-06
1.19898e-06
1.20186e-06
1.20252e-06
1.2024e-06
1.19898e-06
1.19898e-06
1.19898e-06
1.19898e-06
1.19898e-06
1.19898e-06
1.20231e-06
1.20417e-06
1.20433e-06
1.2023e-06
1.19898e-06
1.19898e-06
1.19898e-06
1.19898e-06
1.19898e-06
1.19898e-06
1.2022e-06
1.20389e-06
1.20418e-06
1.20227e-06
1.19898e-06
1.19898e-06
1.19898e-06
1.19898e-06
1.19898e-06
1.19898e-06
1.20216e-06
1.20267e-06
1.20235e-06
1.19898e-06
1.19898e-06
1.19898e-06
1.19898e-06
1.19898e-06
1.19898e-06
1.20225e-06
1.20403e-06
1.20394e-06
1.20186e-06
1.19898e-06
1.19898e-06
1.19898e-06
1.19898e-06
1.20171e-06
1.20245e-06
1.20423e-06
1.20419e-06
1.20252e-06
1.20231e-06
1.2022e-06
1.20216e-06
1.20225e-06
1.20244e-06
1.20398e-06
1.20417e-06
1.20389e-06
1.20267e-06
1.20403e-06
1.20423e-06
1.18728e-06
1.18713e-06
1.18705e-06
1.18535e-06
1.18524e-06
1.18522e-06
1.18529e-06
1.18688e-06
1.18714e-06
1.18705e-06
1.1849e-06
1.18193e-06
1.18193e-06
1.18193e-06
1.18193e-06
1.18481e-06
1.18547e-06
1.18535e-06
1.18193e-06
1.18193e-06
1.18193e-06
1.18193e-06
1.18193e-06
1.18193e-06
1.18526e-06
1.18712e-06
1.18728e-06
1.18525e-06
1.18193e-06
1.18193e-06
1.18193e-06
1.18193e-06
1.18193e-06
1.18193e-06
1.18515e-06
1.18684e-06
1.18713e-06
1.18522e-06
1.18193e-06
1.18193e-06
1.18193e-06
1.18193e-06
1.18193e-06
1.18193e-06
1.18511e-06
1.18562e-06
1.18529e-06
1.18193e-06
1.18193e-06
1.18193e-06
1.18193e-06
1.18193e-06
1.18193e-06
1.1852e-06
1.18697e-06
1.18688e-06
1.18481e-06
1.18193e-06
1.18193e-06
1.18193e-06
1.18193e-06
1.18466e-06
1.18539e-06
1.18718e-06
1.18714e-06
1.18547e-06
1.18526e-06
1.18515e-06
1.18511e-06
1.1852e-06
1.18539e-06
1.18693e-06
1.18712e-06
1.18684e-06
1.18562e-06
1.18697e-06
1.18718e-06
1.17023e-06
1.17008e-06
1.17e-06
1.16829e-06
1.16819e-06
1.16817e-06
1.16824e-06
1.16983e-06
1.17008e-06
1.17e-06
1.16785e-06
1.16488e-06
1.16488e-06
1.16488e-06
1.16488e-06
1.16775e-06
1.16841e-06
1.16829e-06
1.16488e-06
1.16488e-06
1.16488e-06
1.16488e-06
1.16488e-06
1.16488e-06
1.1682e-06
1.17007e-06
1.17023e-06
1.16819e-06
1.16488e-06
1.16488e-06
1.16488e-06
1.16488e-06
1.16488e-06
1.16488e-06
1.16809e-06
1.16978e-06
1.17008e-06
1.16817e-06
1.16487e-06
1.16488e-06
1.16488e-06
1.16488e-06
1.16488e-06
1.16488e-06
1.16805e-06
1.16857e-06
1.16824e-06
1.16487e-06
1.16487e-06
1.16488e-06
1.16488e-06
1.16488e-06
1.16488e-06
1.16814e-06
1.16992e-06
1.16983e-06
1.16775e-06
1.16487e-06
1.16488e-06
1.16488e-06
1.16488e-06
1.1676e-06
1.16834e-06
1.17012e-06
1.17008e-06
1.16841e-06
1.1682e-06
1.16809e-06
1.16805e-06
1.16814e-06
1.16834e-06
1.16988e-06
1.17007e-06
1.16978e-06
1.16857e-06
1.16992e-06
1.17012e-06
1.15317e-06
1.15302e-06
1.15294e-06
1.15124e-06
1.15114e-06
1.15111e-06
1.15119e-06
1.15277e-06
1.15303e-06
1.15294e-06
1.15079e-06
1.14782e-06
1.14782e-06
1.14782e-06
1.14782e-06
1.1507e-06
1.15136e-06
1.15124e-06
1.14782e-06
1.14782e-06
1.14782e-06
1.14782e-06
1.14782e-06
1.14782e-06
1.15115e-06
1.15301e-06
1.15317e-06
1.15114e-06
1.14782e-06
1.14782e-06
1.14782e-06
1.14782e-06
1.14782e-06
1.14782e-06
1.15104e-06
1.15273e-06
1.15302e-06
1.15111e-06
1.14782e-06
1.14782e-06
1.14782e-06
1.14782e-06
1.14782e-06
1.14782e-06
1.151e-06
1.15151e-06
1.15118e-06
1.14782e-06
1.14782e-06
1.14782e-06
1.14782e-06
1.14782e-06
1.14782e-06
1.15109e-06
1.15287e-06
1.15277e-06
1.1507e-06
1.14782e-06
1.14782e-06
1.14782e-06
1.14782e-06
1.15055e-06
1.15128e-06
1.15307e-06
1.15303e-06
1.15136e-06
1.15115e-06
1.15104e-06
1.151e-06
1.15109e-06
1.15128e-06
1.15282e-06
1.15301e-06
1.15273e-06
1.15151e-06
1.15286e-06
1.15307e-06
1.13612e-06
1.13597e-06
1.13589e-06
1.13419e-06
1.13408e-06
1.13406e-06
1.13413e-06
1.13572e-06
1.13597e-06
1.13589e-06
1.13374e-06
1.13077e-06
1.13077e-06
1.13077e-06
1.13077e-06
1.13364e-06
1.13431e-06
1.13419e-06
1.13077e-06
1.13077e-06
1.13077e-06
1.13077e-06
1.13077e-06
1.13077e-06
1.1341e-06
1.13596e-06
1.13612e-06
1.13408e-06
1.13077e-06
1.13077e-06
1.13077e-06
1.13077e-06
1.13077e-06
1.13077e-06
1.13398e-06
1.13568e-06
1.13597e-06
1.13406e-06
1.13077e-06
1.13077e-06
1.13077e-06
1.13077e-06
1.13077e-06
1.13077e-06
1.13394e-06
1.13446e-06
1.13413e-06
1.13077e-06
1.13077e-06
1.13077e-06
1.13077e-06
1.13077e-06
1.13077e-06
1.13403e-06
1.13581e-06
1.13572e-06
1.13364e-06
1.13077e-06
1.13077e-06
1.13077e-06
1.13077e-06
1.13349e-06
1.13423e-06
1.13602e-06
1.13597e-06
1.1343e-06
1.1341e-06
1.13398e-06
1.13394e-06
1.13403e-06
1.13423e-06
1.13577e-06
1.13596e-06
1.13568e-06
1.13446e-06
1.13581e-06
1.13602e-06
1.11907e-06
1.11891e-06
1.11883e-06
1.11713e-06
1.11703e-06
1.117e-06
1.11708e-06
1.11867e-06
1.11892e-06
1.11884e-06
1.11669e-06
1.11371e-06
1.11371e-06
1.11371e-06
1.11371e-06
1.11659e-06
1.11725e-06
1.11713e-06
1.11371e-06
1.11371e-06
1.11371e-06
1.11371e-06
1.11371e-06
1.11371e-06
1.11704e-06
1.1189e-06
1.11907e-06
1.11703e-06
1.11371e-06
1.11371e-06
1.11371e-06
1.11371e-06
1.11371e-06
1.11371e-06
1.11693e-06
1.11862e-06
1.11891e-06
1.117e-06
1.11371e-06
1.11371e-06
1.11371e-06
1.11371e-06
1.11371e-06
1.11371e-06
1.11689e-06
1.1174e-06
1.11708e-06
1.11371e-06
1.11371e-06
1.11371e-06
1.11371e-06
1.11371e-06
1.11371e-06
1.11698e-06
1.11876e-06
1.11867e-06
1.11659e-06
1.11371e-06
1.11371e-06
1.11371e-06
1.11371e-06
1.11644e-06
1.11717e-06
1.11896e-06
1.11892e-06
1.11725e-06
1.11704e-06
1.11693e-06
1.11689e-06
1.11698e-06
1.11717e-06
1.11871e-06
1.1189e-06
1.11862e-06
1.1174e-06
1.11876e-06
1.11896e-06
1.10201e-06
1.10186e-06
1.10178e-06
1.10008e-06
1.09997e-06
1.09995e-06
1.10002e-06
1.10161e-06
1.10186e-06
1.10178e-06
1.09963e-06
1.09666e-06
1.09666e-06
1.09666e-06
1.09666e-06
1.09954e-06
1.1002e-06
1.10008e-06
1.09666e-06
1.09666e-06
1.09666e-06
1.09666e-06
1.09666e-06
1.09666e-06
1.09999e-06
1.10185e-06
1.10201e-06
1.09997e-06
1.09666e-06
1.09666e-06
1.09666e-06
1.09666e-06
1.09666e-06
1.09666e-06
1.09988e-06
1.10157e-06
1.10186e-06
1.09995e-06
1.09666e-06
1.09666e-06
1.09666e-06
1.09666e-06
1.09666e-06
1.09666e-06
1.09984e-06
1.10035e-06
1.10002e-06
1.09666e-06
1.09666e-06
1.09666e-06
1.09666e-06
1.09666e-06
1.09666e-06
1.09992e-06
1.1017e-06
1.10161e-06
1.09954e-06
1.09666e-06
1.09666e-06
1.09666e-06
1.09666e-06
1.09939e-06
1.10012e-06
1.10191e-06
1.10186e-06
1.1002e-06