/*--------------------------------*- C++ -*----------------------------------*\
| =========                 |                                                 |
| \\      /  F ield         | OpenFOAM: The Open Source CFD Toolbox           |
|  \\    /   O peration     | Version:  v2012                                 |
|   \\  /    A nd           | Website:  www.openfoam.com                      |
|    \\/     M anipulation  |                                                 |
\*---------------------------------------------------------------------------*/
FoamFile
{
    version     2.0;
    format      ascii;
    class       volScalarField;
    location    "0.08";
    object      p;
}
// * * * * * * * * * * * * * * * * * * * * * * * * * * * * * * * * * * * * * //

dimensions      [0 2 -2 0 0 0 0];


internalField   nonuniform List<scalar> 
244288
(
2.34103e-06
2.34282e-06
2.34279e-06
2.34223e-06
2.34179e-06
2.34232e-06
2.34284e-06
2.34282e-06
2.34301e-06
2.34304e-06
2.34271e-06
2.34249e-06
2.34276e-06
2.34307e-06
2.34298e-06
2.34279e-06
2.34304e-06
2.34284e-06
2.34246e-06
2.34229e-06
2.34251e-06
2.34289e-06
2.34304e-06
2.34277e-06
2.34222e-06
2.34271e-06
2.34246e-06
2.34205e-06
2.34189e-06
2.3421e-06
2.34251e-06
2.34271e-06
2.34211e-06
2.34103e-06
2.34179e-06
2.34249e-06
2.34229e-06
2.34189e-06
2.34173e-06
2.34193e-06
2.34234e-06
2.34248e-06
2.34164e-06
2.34232e-06
2.34276e-06
2.3425e-06
2.34209e-06
2.34193e-06
2.34214e-06
2.34256e-06
2.34277e-06
2.34222e-06
2.34284e-06
2.34307e-06
2.34289e-06
2.34251e-06
2.34234e-06
2.34256e-06
2.34294e-06
2.34307e-06
2.34283e-06
2.34298e-06
2.34304e-06
2.34271e-06
2.34248e-06
2.34277e-06
2.34307e-06
2.34296e-06
2.34277e-06
2.34211e-06
2.34164e-06
2.34222e-06
2.34283e-06
2.30807e-06
2.30637e-06
2.30748e-06
2.30574e-06
2.30536e-06
2.30528e-06
2.30536e-06
2.3084e-06
2.3081e-06
2.30747e-06
2.30488e-06
2.30192e-06
2.30174e-06
2.30174e-06
2.30193e-06
2.30666e-06
2.30594e-06
2.30573e-06
2.30192e-06
2.30172e-06
2.30168e-06
2.30169e-06
2.30173e-06
2.30192e-06
2.30688e-06
2.30913e-06
2.30805e-06
2.30536e-06
2.30174e-06
2.30168e-06
2.3017e-06
2.30171e-06
2.30169e-06
2.30175e-06
2.30635e-06
2.30779e-06
2.30633e-06
2.30528e-06
2.30174e-06
2.30168e-06
2.3017e-06
2.30171e-06
2.30169e-06
2.30175e-06
2.3063e-06
2.30488e-06
2.30536e-06
2.30192e-06
2.30172e-06
2.30169e-06
2.30169e-06
2.30173e-06
2.30194e-06
2.30653e-06
2.30669e-06
2.3084e-06
2.30665e-06
2.30192e-06
2.30174e-06
2.30175e-06
2.30193e-06
2.30737e-06
2.30674e-06
2.30921e-06
2.3081e-06
2.30594e-06
2.30687e-06
2.30635e-06
2.30629e-06
2.30652e-06
2.30673e-06
2.3096e-06
2.30912e-06
2.30779e-06
2.30488e-06
2.30669e-06
2.30921e-06
2.28637e-06
2.28619e-06
2.28625e-06
2.28348e-06
2.28349e-06
2.28336e-06
2.28357e-06
2.28737e-06
2.28707e-06
2.28625e-06
2.28251e-06
2.27919e-06
2.27876e-06
2.27874e-06
2.27917e-06
2.28566e-06
2.28461e-06
2.28348e-06
2.27919e-06
2.27801e-06
2.27795e-06
2.27794e-06
2.27798e-06
2.2792e-06
2.2868e-06
2.28808e-06
2.28627e-06
2.28351e-06
2.27875e-06
2.27794e-06
2.27795e-06
2.27795e-06
2.27793e-06
2.27872e-06
2.28658e-06
2.2868e-06
2.28608e-06
2.28335e-06
2.27873e-06
2.27794e-06
2.27795e-06
2.27794e-06
2.27793e-06
2.27874e-06
2.28632e-06
2.2835e-06
2.28355e-06
2.27915e-06
2.27798e-06
2.27793e-06
2.27792e-06
2.27798e-06
2.27918e-06
2.28684e-06
2.28759e-06
2.28736e-06
2.28564e-06
2.27919e-06
2.27872e-06
2.27871e-06
2.27918e-06
2.2877e-06
2.28583e-06
2.28772e-06
2.28706e-06
2.2846e-06
2.28679e-06
2.28656e-06
2.28631e-06
2.28683e-06
2.28586e-06
2.28844e-06
2.28807e-06
2.28672e-06
2.28353e-06
2.28758e-06
2.28773e-06
2.26257e-06
2.26243e-06
2.26254e-06
2.25944e-06
2.25953e-06
2.25927e-06
2.25974e-06
2.2637e-06
2.26346e-06
2.26256e-06
2.25771e-06
2.25476e-06
2.25461e-06
2.2546e-06
2.25481e-06
2.26137e-06
2.26116e-06
2.25943e-06
2.25476e-06
2.2544e-06
2.25436e-06
2.25436e-06
2.25441e-06
2.25478e-06
2.26328e-06
2.26442e-06
2.26254e-06
2.25954e-06
2.2546e-06
2.25436e-06
2.25434e-06
2.25435e-06
2.25437e-06
2.25461e-06
2.26355e-06
2.26312e-06
2.26239e-06
2.25926e-06
2.2546e-06
2.25436e-06
2.25434e-06
2.25435e-06
2.25437e-06
2.25461e-06
2.26336e-06
2.25999e-06
2.25972e-06
2.2548e-06
2.2544e-06
2.25436e-06
2.25436e-06
2.25441e-06
2.25482e-06
2.26364e-06
2.26393e-06
2.26369e-06
2.26136e-06
2.25478e-06
2.25461e-06
2.25461e-06
2.25478e-06
2.26442e-06
2.26227e-06
2.26421e-06
2.26344e-06
2.26115e-06
2.26328e-06
2.26356e-06
2.26336e-06
2.26364e-06
2.2623e-06
2.26464e-06
2.2644e-06
2.26311e-06
2.26001e-06
2.26393e-06
2.2642e-06
2.23865e-06
2.23852e-06
2.2383e-06
2.23509e-06
2.2352e-06
2.23479e-06
2.23544e-06
2.23941e-06
2.23913e-06
2.2383e-06
2.23277e-06
2.23014e-06
2.23011e-06
2.23011e-06
2.23016e-06
2.23669e-06
2.23698e-06
2.23509e-06
2.23014e-06
2.23006e-06
2.23006e-06
2.23006e-06
2.23006e-06
2.23015e-06
2.23919e-06
2.24032e-06
2.23863e-06
2.23518e-06
2.2301e-06
2.23005e-06
2.23005e-06
2.23005e-06
2.23006e-06
2.23011e-06
2.23985e-06
2.23928e-06
2.23852e-06
2.23477e-06
2.2301e-06
2.23005e-06
2.23005e-06
2.23005e-06
2.23006e-06
2.23011e-06
2.23973e-06
2.23624e-06
2.23545e-06
2.23016e-06
2.23006e-06
2.23006e-06
2.23006e-06
2.23006e-06
2.23016e-06
2.23974e-06
2.24003e-06
2.23941e-06
2.23668e-06
2.23015e-06
2.23011e-06
2.23011e-06
2.23015e-06
2.24053e-06
2.23819e-06
2.24003e-06
2.23913e-06
2.23699e-06
2.23919e-06
2.23986e-06
2.23974e-06
2.23974e-06
2.23822e-06
2.24037e-06
2.24038e-06
2.23926e-06
2.23625e-06
2.24004e-06
2.24005e-06
2.21438e-06
2.2143e-06
2.21394e-06
2.21071e-06
2.21081e-06
2.21033e-06
2.21107e-06
2.21507e-06
2.21478e-06
2.21395e-06
2.20823e-06
2.20567e-06
2.20566e-06
2.20566e-06
2.20567e-06
2.21216e-06
2.21264e-06
2.21071e-06
2.20566e-06
2.20565e-06
2.20565e-06
2.20565e-06
2.20565e-06
2.20567e-06
2.21486e-06
2.21602e-06
2.21443e-06
2.21077e-06
2.20566e-06
2.20565e-06
2.20565e-06
2.20565e-06
2.20565e-06
2.20566e-06
2.21563e-06
2.21504e-06
2.21433e-06
2.21036e-06
2.20566e-06
2.20565e-06
2.20565e-06
2.20565e-06
2.20565e-06
2.20566e-06
2.21553e-06
2.21205e-06
2.21105e-06
2.20568e-06
2.20565e-06
2.20565e-06
2.20565e-06
2.20565e-06
2.20567e-06
2.21546e-06
2.21578e-06
2.21506e-06
2.21217e-06
2.20567e-06
2.20566e-06
2.20566e-06
2.20567e-06
2.2163e-06
2.21389e-06
2.21574e-06
2.21478e-06
2.21264e-06
2.21486e-06
2.21563e-06
2.21554e-06
2.21547e-06
2.21392e-06
2.21602e-06
2.21605e-06
2.21504e-06
2.21205e-06
2.21577e-06
2.21574e-06
2.19001e-06
2.18992e-06
2.18955e-06
2.1863e-06
2.18639e-06
2.18589e-06
2.18666e-06
2.19066e-06
2.19037e-06
2.18955e-06
2.18379e-06
2.18123e-06
2.18123e-06
2.18123e-06
2.18124e-06
2.18772e-06
2.18824e-06
2.18631e-06
2.18124e-06
2.18123e-06
2.18123e-06
2.18123e-06
2.18123e-06
2.18123e-06
2.19046e-06
2.19162e-06
2.19007e-06
2.18635e-06
2.18123e-06
2.18123e-06
2.18123e-06
2.18123e-06
2.18123e-06
2.18123e-06
2.19126e-06
2.19066e-06
2.18991e-06
2.18592e-06
2.18124e-06
2.18123e-06
2.18123e-06
2.18123e-06
2.18123e-06
2.18123e-06
2.19117e-06
2.18769e-06
2.18665e-06
2.18123e-06
2.18123e-06
2.18123e-06
2.18123e-06
2.18123e-06
2.18123e-06
2.19108e-06
2.1914e-06
2.19065e-06
2.18773e-06
2.18123e-06
2.18123e-06
2.18123e-06
2.18123e-06
2.19194e-06
2.18952e-06
2.19133e-06
2.19036e-06
2.18824e-06
2.19047e-06
2.19127e-06
2.19118e-06
2.19108e-06
2.18953e-06
2.19162e-06
2.19165e-06
2.19066e-06
2.18769e-06
2.1914e-06
2.19134e-06
2.1656e-06
2.16552e-06
2.16513e-06
2.16188e-06
2.16199e-06
2.16148e-06
2.16224e-06
2.16625e-06
2.16595e-06
2.16513e-06
2.15933e-06
2.15681e-06
2.15681e-06
2.15681e-06
2.15681e-06
2.1633e-06
2.16382e-06
2.16188e-06
2.15681e-06
2.15681e-06
2.15681e-06
2.15681e-06
2.15681e-06
2.15681e-06
2.16605e-06
2.16721e-06
2.16564e-06
2.16195e-06
2.15681e-06
2.15681e-06
2.15681e-06
2.15681e-06
2.15681e-06
2.15681e-06
2.16685e-06
2.16625e-06
2.16555e-06
2.16147e-06
2.15681e-06
2.15681e-06
2.15681e-06
2.15681e-06
2.15681e-06
2.15681e-06
2.16676e-06
2.16328e-06
2.16224e-06
2.1568e-06
2.15681e-06
2.15681e-06
2.15681e-06
2.15681e-06
2.15681e-06
2.16667e-06
2.16699e-06
2.16625e-06
2.16329e-06
2.15681e-06
2.1568e-06
2.1568e-06
2.15681e-06
2.16753e-06
2.1651e-06
2.16692e-06
2.16595e-06
2.16382e-06
2.16605e-06
2.16686e-06
2.16677e-06
2.16667e-06
2.16512e-06
2.1672e-06
2.16724e-06
2.16626e-06
2.16329e-06
2.16698e-06
2.16692e-06
2.14118e-06
2.1411e-06
2.14071e-06
2.13746e-06
2.13756e-06
2.13704e-06
2.13782e-06
2.14183e-06
2.14153e-06
2.14069e-06
2.1349e-06
2.13238e-06
2.13238e-06
2.13238e-06
2.13238e-06
2.13887e-06
2.13941e-06
2.13744e-06
2.13239e-06
2.13238e-06
2.13238e-06
2.13238e-06
2.13238e-06
2.13238e-06
2.14163e-06
2.14279e-06
2.14112e-06
2.13757e-06
2.13239e-06
2.13238e-06
2.13239e-06
2.13238e-06
2.13238e-06
2.13238e-06
2.14244e-06
2.14184e-06
2.14103e-06
2.13709e-06
2.13238e-06
2.13238e-06
2.13238e-06
2.13238e-06
2.13238e-06
2.13238e-06
2.14235e-06
2.13887e-06
2.13781e-06
2.13238e-06
2.13238e-06
2.13238e-06
2.13238e-06
2.13238e-06
2.13238e-06
2.14225e-06
2.14257e-06
2.14184e-06
2.13887e-06
2.13239e-06
2.13239e-06
2.13238e-06
2.13238e-06
2.14312e-06
2.14069e-06
2.1425e-06
2.14154e-06
2.1394e-06
2.14163e-06
2.14244e-06
2.14235e-06
2.14225e-06
2.1407e-06
2.14279e-06
2.14282e-06
2.14183e-06
2.13887e-06
2.14257e-06
2.1425e-06
2.11676e-06
2.11668e-06
2.11629e-06
2.11304e-06
2.11314e-06
2.11262e-06
2.1134e-06
2.11741e-06
2.11711e-06
2.11627e-06
2.11048e-06
2.10796e-06
2.10796e-06
2.10796e-06
2.10796e-06
2.11445e-06
2.11499e-06
2.11303e-06
2.10797e-06
2.10796e-06
2.10796e-06
2.10796e-06
2.10796e-06
2.10796e-06
2.11721e-06
2.11837e-06
2.1167e-06
2.11314e-06
2.10797e-06
2.10796e-06
2.10796e-06
2.10796e-06
2.10796e-06
2.10796e-06
2.11802e-06
2.11742e-06
2.11658e-06
2.11265e-06
2.10796e-06
2.10796e-06
2.10796e-06
2.10796e-06
2.10796e-06
2.10796e-06
2.11793e-06
2.11445e-06
2.11337e-06
2.10796e-06
2.10796e-06
2.10796e-06
2.10796e-06
2.10796e-06
2.10796e-06
2.11783e-06
2.11815e-06
2.1174e-06
2.11445e-06
2.10796e-06
2.10796e-06
2.10796e-06
2.10796e-06
2.1187e-06
2.11627e-06
2.11808e-06
2.11711e-06
2.11498e-06
2.11721e-06
2.11802e-06
2.11793e-06
2.11783e-06
2.11628e-06
2.11837e-06
2.1184e-06
2.11742e-06
2.11445e-06
2.11815e-06
2.11808e-06
2.09234e-06
2.09227e-06
2.09187e-06
2.08862e-06
2.08871e-06
2.0882e-06
2.08898e-06
2.09298e-06
2.09269e-06
2.09186e-06
2.08607e-06
2.08354e-06
2.08354e-06
2.08354e-06
2.08354e-06
2.09003e-06
2.09056e-06
2.0886e-06
2.08354e-06
2.08354e-06
2.08354e-06
2.08354e-06
2.08354e-06
2.08354e-06
2.09279e-06
2.09395e-06
2.09226e-06
2.08871e-06
2.08355e-06
2.08354e-06
2.08354e-06
2.08354e-06
2.08354e-06
2.08354e-06
2.09359e-06
2.09299e-06
2.09222e-06
2.08824e-06
2.08354e-06
2.08354e-06
2.08354e-06
2.08354e-06
2.08354e-06
2.08354e-06
2.09351e-06
2.09003e-06
2.08896e-06
2.08354e-06
2.08354e-06
2.08354e-06
2.08354e-06
2.08354e-06
2.08354e-06
2.09341e-06
2.09373e-06
2.09298e-06
2.09003e-06
2.08354e-06
2.08354e-06
2.08354e-06
2.08354e-06
2.09428e-06
2.09185e-06
2.09366e-06
2.09269e-06
2.09056e-06
2.09278e-06
2.09359e-06
2.09351e-06
2.09342e-06
2.09186e-06
2.09395e-06
2.09397e-06
2.09299e-06
2.09003e-06
2.09373e-06
2.09366e-06
2.06792e-06
2.06783e-06
2.06745e-06
2.06419e-06
2.06429e-06
2.06378e-06
2.06455e-06
2.06856e-06
2.06827e-06
2.06744e-06
2.06164e-06
2.05912e-06
2.05912e-06
2.05912e-06
2.05912e-06
2.0656e-06
2.06614e-06
2.06419e-06
2.05911e-06
2.05912e-06
2.05912e-06
2.05912e-06
2.05912e-06
2.05912e-06
2.06836e-06
2.06953e-06
2.06792e-06
2.06429e-06
2.05912e-06
2.05912e-06
2.05912e-06
2.05912e-06
2.05912e-06
2.05912e-06
2.06917e-06
2.06858e-06
2.06784e-06
2.06378e-06
2.05912e-06
2.05912e-06
2.05912e-06
2.05912e-06
2.05912e-06
2.05912e-06
2.06908e-06
2.06561e-06
2.06455e-06
2.05912e-06
2.05912e-06
2.05912e-06
2.05912e-06
2.05912e-06
2.05912e-06
2.06899e-06
2.0693e-06
2.06855e-06
2.06561e-06
2.05912e-06
2.05912e-06
2.05912e-06
2.05912e-06
2.06985e-06
2.06743e-06
2.06924e-06
2.06826e-06
2.06613e-06
2.06836e-06
2.06917e-06
2.06909e-06
2.06899e-06
2.06744e-06
2.06952e-06
2.06955e-06
2.06857e-06
2.0656e-06
2.06931e-06
2.06924e-06
2.0435e-06
2.04342e-06
2.04302e-06
2.03977e-06
2.03987e-06
2.03935e-06
2.04013e-06
2.04414e-06
2.04384e-06
2.04301e-06
2.03722e-06
2.03469e-06
2.03469e-06
2.03469e-06
2.03469e-06
2.04118e-06
2.04172e-06
2.03977e-06
2.03469e-06
2.03469e-06
2.03469e-06
2.03469e-06
2.03469e-06
2.03469e-06
2.04394e-06
2.0451e-06
2.04352e-06
2.03984e-06
2.03469e-06
2.03469e-06
2.03469e-06
2.03469e-06
2.03469e-06
2.03469e-06
2.04475e-06
2.04415e-06
2.04341e-06
2.03939e-06
2.03469e-06
2.03469e-06
2.03469e-06
2.03469e-06
2.03469e-06
2.03469e-06
2.04466e-06
2.04118e-06
2.04011e-06
2.03469e-06
2.03469e-06
2.03469e-06
2.03469e-06
2.03469e-06
2.03469e-06
2.04456e-06
2.04488e-06
2.04412e-06
2.04118e-06
2.03469e-06
2.03469e-06
2.03469e-06
2.03469e-06
2.04544e-06
2.04301e-06
2.04481e-06
2.04384e-06
2.04171e-06
2.04394e-06
2.04475e-06
2.04467e-06
2.04457e-06
2.04302e-06
2.0451e-06
2.04512e-06
2.04414e-06
2.04118e-06
2.04488e-06
2.04481e-06
2.01907e-06
2.01899e-06
2.01859e-06
2.01535e-06
2.01545e-06
2.01493e-06
2.01571e-06
2.01971e-06
2.01942e-06
2.01859e-06
2.0128e-06
2.01027e-06
2.01027e-06
2.01027e-06
2.01027e-06
2.01676e-06
2.01729e-06
2.01535e-06
2.01026e-06
2.01027e-06
2.01027e-06
2.01027e-06
2.01027e-06
2.01027e-06
2.01951e-06
2.02067e-06
2.01918e-06
2.01539e-06
2.01027e-06
2.01027e-06
2.01027e-06
2.01027e-06
2.01027e-06
2.01027e-06
2.02032e-06
2.01972e-06
2.01895e-06
2.01498e-06
2.01027e-06
2.01027e-06
2.01027e-06
2.01027e-06
2.01027e-06
2.01027e-06
2.02024e-06
2.01676e-06
2.0157e-06
2.01027e-06
2.01027e-06
2.01027e-06
2.01027e-06
2.01027e-06
2.01027e-06
2.02014e-06
2.02046e-06
2.01969e-06
2.01676e-06
2.01027e-06
2.01027e-06
2.01027e-06
2.01027e-06
2.02101e-06
2.01858e-06
2.02039e-06
2.01941e-06
2.01728e-06
2.01952e-06
2.02033e-06
2.02025e-06
2.02015e-06
2.01859e-06
2.02068e-06
2.02071e-06
2.01972e-06
2.01676e-06
2.02046e-06
2.02039e-06
1.99465e-06
1.99456e-06
1.99417e-06
1.99092e-06
1.99102e-06
1.9905e-06
1.99128e-06
1.99529e-06
1.99499e-06
1.99417e-06
1.98837e-06
1.98585e-06
1.98585e-06
1.98585e-06
1.98585e-06
1.99234e-06
1.99287e-06
1.99093e-06
1.98585e-06
1.98585e-06
1.98585e-06
1.98585e-06
1.98585e-06
1.98585e-06
1.99509e-06
1.99625e-06
1.99471e-06
1.99098e-06
1.98585e-06
1.98585e-06
1.98585e-06
1.98585e-06
1.98585e-06
1.98585e-06
1.9959e-06
1.9953e-06
1.99463e-06
1.99054e-06
1.98585e-06
1.98585e-06
1.98585e-06
1.98585e-06
1.98585e-06
1.98585e-06
1.99581e-06
1.99234e-06
1.99127e-06
1.98585e-06
1.98585e-06
1.98585e-06
1.98585e-06
1.98585e-06
1.98585e-06
1.99572e-06
1.99604e-06
1.99528e-06
1.99232e-06
1.98585e-06
1.98584e-06
1.98584e-06
1.98584e-06
1.99659e-06
1.99416e-06
1.99597e-06
1.99499e-06
1.99286e-06
1.9951e-06
1.99591e-06
1.99582e-06
1.99572e-06
1.99416e-06
1.99625e-06
1.99628e-06
1.9953e-06
1.99234e-06
1.99604e-06
1.99597e-06
1.97023e-06
1.97015e-06
1.96974e-06
1.9665e-06
1.96659e-06
1.96608e-06
1.96686e-06
1.97087e-06
1.97057e-06
1.96973e-06
1.96394e-06
1.96142e-06
1.96142e-06
1.96142e-06
1.96142e-06
1.96791e-06
1.96845e-06
1.96649e-06
1.96142e-06
1.96142e-06
1.96142e-06
1.96142e-06
1.96142e-06
1.96142e-06
1.97067e-06
1.97183e-06
1.97022e-06
1.96658e-06
1.96142e-06
1.96142e-06
1.96142e-06
1.96142e-06
1.96142e-06
1.96142e-06
1.97148e-06
1.97088e-06
1.9701e-06
1.96609e-06
1.96142e-06
1.96142e-06
1.96142e-06
1.96142e-06
1.96142e-06
1.96142e-06
1.97139e-06
1.96791e-06
1.96686e-06
1.96142e-06
1.96142e-06
1.96142e-06
1.96142e-06
1.96142e-06
1.96142e-06
1.97129e-06
1.97161e-06
1.97088e-06
1.96791e-06
1.96142e-06
1.96142e-06
1.96142e-06
1.96142e-06
1.97216e-06
1.96973e-06
1.97154e-06
1.97058e-06
1.96844e-06
1.97067e-06
1.97148e-06
1.97139e-06
1.97129e-06
1.96974e-06
1.97183e-06
1.97186e-06
1.97088e-06
1.96791e-06
1.97161e-06
1.97155e-06
1.9458e-06
1.94572e-06
1.94532e-06
1.94207e-06
1.94218e-06
1.94165e-06
1.94244e-06
1.94644e-06
1.94615e-06
1.94531e-06
1.93952e-06
1.937e-06
1.937e-06
1.937e-06
1.937e-06
1.94349e-06
1.94402e-06
1.94207e-06
1.937e-06
1.937e-06
1.937e-06
1.937e-06
1.937e-06
1.937e-06
1.94624e-06
1.94741e-06
1.94579e-06
1.94215e-06
1.937e-06
1.937e-06
1.937e-06
1.937e-06
1.937e-06
1.937e-06
1.94705e-06
1.94645e-06
1.94574e-06
1.94166e-06
1.937e-06
1.937e-06
1.937e-06
1.937e-06
1.937e-06
1.937e-06
1.94697e-06
1.94349e-06
1.94244e-06
1.937e-06
1.937e-06
1.937e-06
1.937e-06
1.937e-06
1.937e-06
1.94687e-06
1.94719e-06
1.94644e-06
1.94349e-06
1.937e-06
1.937e-06
1.937e-06
1.937e-06
1.94774e-06
1.94531e-06
1.94712e-06
1.94615e-06
1.94402e-06
1.94625e-06
1.94705e-06
1.94698e-06
1.94687e-06
1.94532e-06
1.9474e-06
1.94744e-06
1.94645e-06
1.94347e-06
1.94719e-06
1.94711e-06
1.92138e-06
1.92129e-06
1.9209e-06
1.91765e-06
1.91776e-06
1.91723e-06
1.91801e-06
1.92202e-06
1.92172e-06
1.92089e-06
1.9151e-06
1.91258e-06
1.91258e-06
1.91258e-06
1.91258e-06
1.91906e-06
1.9196e-06
1.91765e-06
1.91258e-06
1.91258e-06
1.91258e-06
1.91258e-06
1.91258e-06
1.91257e-06
1.92182e-06
1.92298e-06
1.92137e-06
1.91775e-06
1.91258e-06
1.91258e-06
1.91258e-06
1.91258e-06
1.91258e-06
1.91257e-06
1.92263e-06
1.92203e-06
1.92131e-06
1.91723e-06
1.91258e-06
1.91257e-06
1.91258e-06
1.91258e-06
1.91258e-06
1.91258e-06
1.92254e-06
1.91907e-06
1.91802e-06
1.91257e-06
1.91257e-06
1.91257e-06
1.91258e-06
1.91258e-06
1.91258e-06
1.92245e-06
1.92277e-06
1.92202e-06
1.91906e-06
1.91257e-06
1.91257e-06
1.91258e-06
1.91258e-06
1.92332e-06
1.92089e-06
1.9227e-06
1.92172e-06
1.9196e-06
1.92182e-06
1.92262e-06
1.92254e-06
1.92244e-06
1.9209e-06
1.92298e-06
1.923e-06
1.92208e-06
1.91901e-06
1.92274e-06
1.9227e-06
1.89696e-06
1.89688e-06
1.89648e-06
1.89323e-06
1.89332e-06
1.89281e-06
1.89359e-06
1.8976e-06
1.8973e-06
1.89647e-06
1.89067e-06
1.88815e-06
1.88815e-06
1.88815e-06
1.88815e-06
1.89464e-06
1.89518e-06
1.89322e-06
1.88815e-06
1.88815e-06
1.88815e-06
1.88815e-06
1.88815e-06
1.88815e-06
1.8974e-06
1.89856e-06
1.89695e-06
1.89335e-06
1.88815e-06
1.88815e-06
1.88815e-06
1.88815e-06
1.88815e-06
1.88815e-06
1.8982e-06
1.89761e-06
1.89684e-06
1.89282e-06
1.88815e-06
1.88815e-06
1.88815e-06
1.88815e-06
1.88815e-06
1.88815e-06
1.89812e-06
1.89464e-06
1.89359e-06
1.88815e-06
1.88815e-06
1.88815e-06
1.88815e-06
1.88815e-06
1.88815e-06
1.89802e-06
1.89834e-06
1.89758e-06
1.89464e-06
1.88815e-06
1.88815e-06
1.88815e-06
1.88815e-06
1.89889e-06
1.89646e-06
1.89827e-06
1.8973e-06
1.89518e-06
1.8974e-06
1.8982e-06
1.89814e-06
1.89802e-06
1.89647e-06
1.89855e-06
1.89859e-06
1.89767e-06
1.89463e-06
1.89833e-06
1.89824e-06
1.87253e-06
1.87245e-06
1.87205e-06
1.86881e-06
1.86891e-06
1.86838e-06
1.86917e-06
1.87317e-06
1.87288e-06
1.87204e-06
1.86625e-06
1.86373e-06
1.86373e-06
1.86373e-06
1.86373e-06
1.87022e-06
1.87075e-06
1.8688e-06
1.86373e-06
1.86373e-06
1.86373e-06
1.86373e-06
1.86373e-06
1.86373e-06
1.87297e-06
1.87414e-06
1.87252e-06
1.86891e-06
1.86373e-06
1.86373e-06
1.86373e-06
1.86373e-06
1.86373e-06
1.86373e-06
1.87378e-06
1.87318e-06
1.87242e-06
1.86838e-06
1.86373e-06
1.86373e-06
1.86373e-06
1.86373e-06
1.86373e-06
1.86373e-06
1.87369e-06
1.87022e-06
1.86917e-06
1.86373e-06
1.86373e-06
1.86373e-06
1.86373e-06
1.86373e-06
1.86373e-06
1.8736e-06
1.87392e-06
1.87318e-06
1.87021e-06
1.86373e-06
1.86373e-06
1.86373e-06
1.86373e-06
1.87448e-06
1.87204e-06
1.87384e-06
1.87288e-06
1.87074e-06
1.87296e-06
1.87378e-06
1.87374e-06
1.87361e-06
1.87205e-06
1.87413e-06
1.87413e-06
1.87312e-06
1.87027e-06
1.87393e-06
1.87387e-06
1.84811e-06
1.84802e-06
1.84763e-06
1.84438e-06
1.84449e-06
1.84397e-06
1.84474e-06
1.84875e-06
1.84845e-06
1.84762e-06
1.84182e-06
1.83931e-06
1.83931e-06
1.8393e-06
1.8393e-06
1.84579e-06
1.84633e-06
1.84437e-06
1.8393e-06
1.83931e-06
1.83931e-06
1.8393e-06
1.8393e-06
1.8393e-06
1.84855e-06
1.84971e-06
1.8481e-06
1.84447e-06
1.8393e-06
1.8393e-06
1.83931e-06
1.8393e-06
1.8393e-06
1.8393e-06
1.84936e-06
1.84876e-06
1.848e-06
1.84396e-06
1.8393e-06
1.83931e-06
1.83931e-06
1.83931e-06
1.8393e-06
1.8393e-06
1.84927e-06
1.84579e-06
1.84475e-06
1.8393e-06
1.83931e-06
1.83931e-06
1.83931e-06
1.8393e-06
1.8393e-06
1.84917e-06
1.84949e-06
1.84876e-06
1.84579e-06
1.83931e-06
1.83931e-06
1.83931e-06
1.8393e-06
1.85005e-06
1.84761e-06
1.84942e-06
1.84846e-06
1.84632e-06
1.84855e-06
1.84936e-06
1.84932e-06
1.84918e-06
1.84764e-06
1.84971e-06
1.84968e-06
1.84869e-06
1.84588e-06
1.84949e-06
1.84945e-06
1.82369e-06
1.82359e-06
1.82321e-06
1.81996e-06
1.82007e-06
1.81954e-06
1.82031e-06
1.82432e-06
1.82403e-06
1.8232e-06
1.8174e-06
1.81488e-06
1.81488e-06
1.81488e-06
1.81488e-06
1.82137e-06
1.8219e-06
1.81995e-06
1.81488e-06
1.81488e-06
1.81488e-06
1.81488e-06
1.81488e-06
1.81488e-06
1.82413e-06
1.82529e-06
1.82369e-06
1.82005e-06
1.81488e-06
1.81488e-06
1.81488e-06
1.81488e-06
1.81488e-06
1.81488e-06
1.82494e-06
1.82434e-06
1.82361e-06
1.81954e-06
1.81488e-06
1.81488e-06
1.81488e-06
1.81488e-06
1.81488e-06
1.81488e-06
1.82485e-06
1.82137e-06
1.82033e-06
1.81488e-06
1.81488e-06
1.81488e-06
1.81488e-06
1.81488e-06
1.81488e-06
1.82475e-06
1.82507e-06
1.82433e-06
1.82137e-06
1.81488e-06
1.81488e-06
1.81488e-06
1.81488e-06
1.82562e-06
1.82319e-06
1.825e-06
1.82404e-06
1.82191e-06
1.82413e-06
1.82493e-06
1.82486e-06
1.82474e-06
1.8232e-06
1.82528e-06
1.82531e-06
1.82439e-06
1.82131e-06
1.82502e-06
1.82502e-06
1.79926e-06
1.79917e-06
1.79878e-06
1.79554e-06
1.79565e-06
1.79512e-06
1.79589e-06
1.7999e-06
1.7996e-06
1.79877e-06
1.79298e-06
1.79046e-06
1.79046e-06
1.79046e-06
1.79046e-06
1.79695e-06
1.79748e-06
1.79553e-06
1.79046e-06
1.79046e-06
1.79046e-06
1.79046e-06
1.79046e-06
1.79046e-06
1.7997e-06
1.80087e-06
1.79925e-06
1.79563e-06
1.79046e-06
1.79046e-06
1.79046e-06
1.79046e-06
1.79046e-06
1.79046e-06
1.80051e-06
1.79992e-06
1.79918e-06
1.79512e-06
1.79046e-06
1.79046e-06
1.79046e-06
1.79046e-06
1.79046e-06
1.79046e-06
1.80043e-06
1.79695e-06
1.7959e-06
1.79046e-06
1.79046e-06
1.79046e-06
1.79046e-06
1.79046e-06
1.79046e-06
1.80033e-06
1.80065e-06
1.79991e-06
1.79695e-06
1.79046e-06
1.79046e-06
1.79046e-06
1.79046e-06
1.8012e-06
1.79877e-06
1.80058e-06
1.79961e-06
1.79748e-06
1.79971e-06
1.80052e-06
1.80045e-06
1.80033e-06
1.79878e-06
1.80086e-06
1.80091e-06
1.79998e-06
1.79694e-06
1.80063e-06
1.80055e-06
1.77482e-06
1.77473e-06
1.77436e-06
1.77111e-06
1.77122e-06
1.77069e-06
1.77147e-06
1.7755e-06
1.77519e-06
1.77435e-06
1.76855e-06
1.76604e-06
1.76604e-06
1.76604e-06
1.76604e-06
1.77253e-06
1.77306e-06
1.7711e-06
1.76604e-06
1.76604e-06
1.76604e-06
1.76604e-06
1.76604e-06
1.76604e-06
1.77528e-06
1.77644e-06
1.77484e-06
1.77122e-06
1.76604e-06
1.76604e-06
1.76604e-06
1.76604e-06
1.76604e-06
1.76604e-06
1.77609e-06
1.77549e-06
1.77474e-06
1.77069e-06
1.76604e-06
1.76604e-06
1.76604e-06
1.76604e-06
1.76604e-06
1.76604e-06
1.776e-06
1.77252e-06
1.77148e-06
1.76603e-06
1.76604e-06
1.76604e-06
1.76604e-06
1.76604e-06
1.76604e-06
1.77591e-06
1.77623e-06
1.77548e-06
1.77252e-06
1.76604e-06
1.76604e-06
1.76604e-06
1.76604e-06
1.77678e-06
1.77435e-06
1.77615e-06
1.77518e-06
1.77305e-06
1.77527e-06
1.77609e-06
1.77604e-06
1.77592e-06
1.77436e-06
1.77644e-06
1.77643e-06
1.77545e-06
1.77256e-06
1.77623e-06
1.77618e-06
1.7504e-06
1.75032e-06
1.74994e-06
1.74669e-06
1.74677e-06
1.74627e-06
1.74705e-06
1.75107e-06
1.75077e-06
1.74993e-06
1.74413e-06
1.74161e-06
1.74161e-06
1.74161e-06
1.74161e-06
1.74811e-06
1.74864e-06
1.74668e-06
1.74161e-06
1.74161e-06
1.74161e-06
1.74161e-06
1.74161e-06
1.74161e-06
1.75086e-06
1.75202e-06
1.75042e-06
1.74677e-06
1.74161e-06
1.74161e-06
1.74161e-06
1.74161e-06
1.74161e-06
1.74162e-06
1.75167e-06
1.75107e-06
1.75034e-06
1.74627e-06
1.74161e-06
1.74161e-06
1.74161e-06
1.74161e-06
1.74161e-06
1.74161e-06
1.75158e-06
1.74811e-06
1.74705e-06
1.74161e-06
1.74161e-06
1.74161e-06
1.74161e-06
1.74161e-06
1.74161e-06
1.75148e-06
1.7518e-06
1.75106e-06
1.74809e-06
1.74162e-06
1.74162e-06
1.74161e-06
1.74161e-06
1.75236e-06
1.74992e-06
1.75173e-06
1.75076e-06
1.74863e-06
1.75085e-06
1.75166e-06
1.75162e-06
1.75149e-06
1.74995e-06
1.75202e-06
1.75199e-06
1.75099e-06
1.74817e-06
1.7518e-06
1.75176e-06
1.72599e-06
1.72592e-06
1.72551e-06
1.72226e-06
1.72234e-06
1.72184e-06
1.72263e-06
1.72664e-06
1.72635e-06
1.7255e-06
1.71971e-06
1.71719e-06
1.71719e-06
1.71719e-06
1.71719e-06
1.72368e-06
1.72422e-06
1.72226e-06
1.71719e-06
1.71719e-06
1.71719e-06
1.71719e-06
1.71719e-06
1.71719e-06
1.72644e-06
1.7276e-06
1.72599e-06
1.72237e-06
1.71719e-06
1.71719e-06
1.71719e-06
1.71719e-06
1.71719e-06
1.71719e-06
1.72725e-06
1.72665e-06
1.72591e-06
1.72185e-06
1.71719e-06
1.71719e-06
1.71719e-06
1.71719e-06
1.71719e-06
1.71719e-06
1.72716e-06
1.72368e-06
1.72262e-06
1.71719e-06
1.71719e-06
1.71719e-06
1.71719e-06
1.71719e-06
1.71719e-06
1.72706e-06
1.72738e-06
1.72663e-06
1.72366e-06
1.71719e-06
1.71719e-06
1.71719e-06
1.71719e-06
1.72793e-06
1.7255e-06
1.72731e-06
1.72634e-06
1.7242e-06
1.72643e-06
1.72725e-06
1.72719e-06
1.72706e-06
1.72551e-06
1.72759e-06
1.72761e-06
1.72659e-06
1.72373e-06
1.72739e-06
1.72733e-06
1.70157e-06
1.70149e-06
1.70109e-06
1.69784e-06
1.69793e-06
1.69742e-06
1.69821e-06
1.70221e-06
1.70192e-06
1.70108e-06
1.69528e-06
1.69277e-06
1.69277e-06
1.69277e-06
1.69277e-06
1.69926e-06
1.69979e-06
1.69783e-06
1.69276e-06
1.69277e-06
1.69277e-06
1.69277e-06
1.69277e-06
1.69277e-06
1.70201e-06
1.70318e-06
1.70157e-06
1.69796e-06
1.69276e-06
1.69277e-06
1.69277e-06
1.69277e-06
1.69277e-06
1.69277e-06
1.70282e-06
1.70222e-06
1.70149e-06
1.69743e-06
1.69276e-06
1.69277e-06
1.69277e-06
1.69277e-06
1.69277e-06
1.69277e-06
1.70273e-06
1.69926e-06
1.69819e-06
1.69277e-06
1.69277e-06
1.69277e-06
1.69277e-06
1.69276e-06
1.69276e-06
1.70263e-06
1.70295e-06
1.70221e-06
1.69924e-06
1.69277e-06
1.69277e-06
1.69277e-06
1.69277e-06
1.70351e-06
1.70108e-06
1.70289e-06
1.70191e-06
1.69978e-06
1.70201e-06
1.70283e-06
1.70274e-06
1.70264e-06
1.70109e-06
1.70317e-06
1.7032e-06
1.70222e-06
1.69926e-06
1.70295e-06
1.70288e-06
1.67714e-06
1.67706e-06
1.67667e-06
1.67342e-06
1.67352e-06
1.673e-06
1.67378e-06
1.67779e-06
1.67749e-06
1.67666e-06
1.67085e-06
1.66834e-06
1.66834e-06
1.66834e-06
1.66834e-06
1.67483e-06
1.67537e-06
1.6734e-06
1.66834e-06
1.66834e-06
1.66834e-06
1.66834e-06
1.66834e-06
1.66834e-06
1.67759e-06
1.67875e-06
1.67711e-06
1.67352e-06
1.66834e-06
1.66834e-06
1.66834e-06
1.66834e-06
1.66834e-06
1.66834e-06
1.6784e-06
1.6778e-06
1.67699e-06
1.67304e-06
1.66834e-06
1.66834e-06
1.66834e-06
1.66834e-06
1.66834e-06
1.66834e-06
1.67831e-06
1.67483e-06
1.67377e-06
1.66834e-06
1.66834e-06
1.66834e-06
1.66834e-06
1.66834e-06
1.66834e-06
1.67821e-06
1.67853e-06
1.6778e-06
1.67483e-06
1.66834e-06
1.66835e-06
1.66834e-06
1.66834e-06
1.67908e-06
1.67665e-06
1.67846e-06
1.6775e-06
1.67536e-06
1.67759e-06
1.6784e-06
1.67831e-06
1.67822e-06
1.67666e-06
1.67875e-06
1.67878e-06
1.67779e-06
1.67483e-06
1.67853e-06
1.67846e-06
1.65272e-06
1.65264e-06
1.65225e-06
1.649e-06
1.6491e-06
1.64858e-06
1.64936e-06
1.65336e-06
1.65307e-06
1.65224e-06
1.64644e-06
1.64392e-06
1.64392e-06
1.64392e-06
1.64392e-06
1.65041e-06
1.65094e-06
1.649e-06
1.64392e-06
1.64392e-06
1.64392e-06
1.64392e-06
1.64392e-06
1.64392e-06
1.65316e-06
1.65433e-06
1.65264e-06
1.6491e-06
1.64392e-06
1.64392e-06
1.64392e-06
1.64392e-06
1.64392e-06
1.64392e-06
1.65397e-06
1.65338e-06
1.65255e-06
1.64862e-06
1.64392e-06
1.64392e-06
1.64392e-06
1.64392e-06
1.64392e-06
1.64392e-06
1.65389e-06
1.65041e-06
1.64932e-06
1.64392e-06
1.64392e-06
1.64392e-06
1.64392e-06
1.64392e-06
1.64392e-06
1.65379e-06
1.65411e-06
1.65336e-06
1.6504e-06
1.64392e-06
1.64392e-06
1.64392e-06
1.64392e-06
1.65466e-06
1.65223e-06
1.65404e-06
1.65307e-06
1.65093e-06
1.65317e-06
1.65398e-06
1.65389e-06
1.65379e-06
1.65224e-06
1.65432e-06
1.65435e-06
1.65338e-06
1.65041e-06
1.6541e-06
1.65404e-06
1.6283e-06
1.62821e-06
1.62783e-06
1.62458e-06
1.62467e-06
1.62416e-06
1.62494e-06
1.62894e-06
1.62865e-06
1.6278e-06
1.62202e-06
1.6195e-06
1.6195e-06
1.6195e-06
1.6195e-06
1.62598e-06
1.62652e-06
1.62456e-06
1.6195e-06
1.6195e-06
1.6195e-06
1.6195e-06
1.6195e-06
1.6195e-06
1.62874e-06
1.6299e-06
1.62823e-06
1.62466e-06
1.6195e-06
1.6195e-06
1.6195e-06
1.6195e-06
1.6195e-06
1.6195e-06
1.62955e-06
1.62895e-06
1.6282e-06
1.62418e-06
1.6195e-06
1.6195e-06
1.6195e-06
1.6195e-06
1.6195e-06
1.6195e-06
1.62946e-06
1.62599e-06
1.62492e-06
1.6195e-06
1.6195e-06
1.6195e-06
1.6195e-06
1.6195e-06
1.6195e-06
1.62937e-06
1.62969e-06
1.62895e-06
1.62599e-06
1.6195e-06
1.6195e-06
1.6195e-06
1.6195e-06
1.63023e-06
1.62781e-06
1.62961e-06
1.62865e-06
1.62652e-06
1.62875e-06
1.62955e-06
1.62947e-06
1.62937e-06
1.62781e-06
1.6299e-06
1.62994e-06
1.62895e-06
1.62599e-06
1.62969e-06
1.62962e-06
1.60388e-06
1.6038e-06
1.60341e-06
1.60015e-06
1.60025e-06
1.59973e-06
1.60051e-06
1.60452e-06
1.60422e-06
1.6034e-06
1.5976e-06
1.59508e-06
1.59508e-06
1.59508e-06
1.59508e-06
1.60156e-06
1.6021e-06
1.60016e-06
1.59508e-06
1.59508e-06
1.59508e-06
1.59508e-06
1.59508e-06
1.59508e-06
1.60432e-06
1.60549e-06
1.60388e-06
1.6003e-06
1.59508e-06
1.59508e-06
1.59508e-06
1.59508e-06
1.59508e-06
1.59508e-06
1.60513e-06
1.60453e-06
1.60378e-06
1.59973e-06
1.59507e-06
1.59507e-06
1.59507e-06
1.59507e-06
1.59507e-06
1.59507e-06
1.60504e-06
1.60157e-06
1.6005e-06
1.59507e-06
1.59507e-06
1.59507e-06
1.59507e-06
1.59508e-06
1.59507e-06
1.60494e-06
1.60526e-06
1.60451e-06
1.60156e-06
1.59507e-06
1.59508e-06
1.59508e-06
1.59508e-06
1.60582e-06
1.60339e-06
1.6052e-06
1.60422e-06
1.60209e-06
1.60432e-06
1.60513e-06
1.60505e-06
1.60495e-06
1.60339e-06
1.60548e-06
1.60551e-06
1.60453e-06
1.60156e-06
1.60527e-06
1.6052e-06
1.57945e-06
1.57937e-06
1.57898e-06
1.57573e-06
1.57583e-06
1.57531e-06
1.57609e-06
1.5801e-06
1.5798e-06
1.57898e-06
1.57318e-06
1.57065e-06
1.57065e-06
1.57065e-06
1.57065e-06
1.57714e-06
1.57768e-06
1.57572e-06
1.57065e-06
1.57065e-06
1.57065e-06
1.57065e-06
1.57065e-06
1.57065e-06
1.5799e-06
1.58106e-06
1.57945e-06
1.57583e-06
1.57065e-06
1.57065e-06
1.57065e-06
1.57065e-06
1.57065e-06
1.57065e-06
1.58071e-06
1.58011e-06
1.57936e-06
1.57532e-06
1.57065e-06
1.57065e-06
1.57065e-06
1.57065e-06
1.57065e-06
1.57065e-06
1.58062e-06
1.57714e-06
1.57608e-06
1.57065e-06
1.57065e-06
1.57065e-06
1.57065e-06
1.57065e-06
1.57065e-06
1.58052e-06
1.58084e-06
1.58009e-06
1.57714e-06
1.57065e-06
1.57065e-06
1.57065e-06
1.57065e-06
1.58139e-06
1.57896e-06
1.58077e-06
1.5798e-06
1.57767e-06
1.5799e-06