/*--------------------------------*- C++ -*----------------------------------*\
| =========                 |                                                 |
| \\      /  F ield         | OpenFOAM: The Open Source CFD Toolbox           |
|  \\    /   O peration     | Version:  v2012                                 |
|   \\  /    A nd           | Website:  www.openfoam.com                      |
|    \\/     M anipulation  |                                                 |
\*---------------------------------------------------------------------------*/
FoamFile
{
    version     2.0;
    format      ascii;
    class       volScalarField;
    location    "0.07";
    object      p;
}
// * * * * * * * * * * * * * * * * * * * * * * * * * * * * * * * * * * * * * //

dimensions      [0 2 -2 0 0 0 0];


internalField   nonuniform List<scalar> 
244288
(
2.40506e-06
2.40709e-06
2.40702e-06
2.4064e-06
2.40593e-06
2.40651e-06
2.40708e-06
2.40709e-06
2.4073e-06
2.40732e-06
2.40697e-06
2.40674e-06
2.40703e-06
2.40735e-06
2.40728e-06
2.40702e-06
2.40732e-06
2.40713e-06
2.40674e-06
2.40657e-06
2.40679e-06
2.40718e-06
2.40731e-06
2.40698e-06
2.4064e-06
2.40696e-06
2.40674e-06
2.40634e-06
2.40618e-06
2.40639e-06
2.4068e-06
2.40696e-06
2.40627e-06
2.40506e-06
2.40593e-06
2.40674e-06
2.40657e-06
2.40618e-06
2.40602e-06
2.40622e-06
2.40662e-06
2.40671e-06
2.40576e-06
2.4065e-06
2.40702e-06
2.40679e-06
2.40639e-06
2.40622e-06
2.40644e-06
2.40685e-06
2.40702e-06
2.40639e-06
2.40708e-06
2.40735e-06
2.40718e-06
2.4068e-06
2.40662e-06
2.40685e-06
2.40724e-06
2.40735e-06
2.40707e-06
2.40727e-06
2.40731e-06
2.40696e-06
2.40671e-06
2.40702e-06
2.40735e-06
2.40725e-06
2.40698e-06
2.40627e-06
2.40576e-06
2.40639e-06
2.40706e-06
2.37221e-06
2.37045e-06
2.37179e-06
2.37007e-06
2.36962e-06
2.36957e-06
2.36963e-06
2.37287e-06
2.37249e-06
2.37178e-06
2.3692e-06
2.36622e-06
2.36601e-06
2.36602e-06
2.36623e-06
2.37107e-06
2.37028e-06
2.37006e-06
2.36622e-06
2.36602e-06
2.36597e-06
2.36597e-06
2.36603e-06
2.36623e-06
2.37123e-06
2.37364e-06
2.3722e-06
2.36962e-06
2.366e-06
2.36596e-06
2.36598e-06
2.36599e-06
2.36597e-06
2.36602e-06
2.37062e-06
2.3722e-06
2.37039e-06
2.36957e-06
2.36601e-06
2.36597e-06
2.36598e-06
2.36599e-06
2.36598e-06
2.36603e-06
2.37059e-06
2.3691e-06
2.36963e-06
2.36623e-06
2.36602e-06
2.36597e-06
2.36597e-06
2.36603e-06
2.36625e-06
2.37083e-06
2.37105e-06
2.37286e-06
2.37106e-06
2.36622e-06
2.36601e-06
2.36602e-06
2.36623e-06
2.37178e-06
2.37115e-06
2.37376e-06
2.37249e-06
2.37028e-06
2.37122e-06
2.37062e-06
2.37058e-06
2.37082e-06
2.37112e-06
2.37418e-06
2.37364e-06
2.37221e-06
2.36909e-06
2.37103e-06
2.37375e-06
2.35033e-06
2.35017e-06
2.35022e-06
2.34745e-06
2.34746e-06
2.34729e-06
2.34755e-06
2.35151e-06
2.35114e-06
2.35022e-06
2.34662e-06
2.34327e-06
2.34282e-06
2.34279e-06
2.34326e-06
2.35008e-06
2.34862e-06
2.34744e-06
2.34326e-06
2.34205e-06
2.34198e-06
2.34197e-06
2.34203e-06
2.3433e-06
2.35112e-06
2.35218e-06
2.35022e-06
2.34748e-06
2.3428e-06
2.34197e-06
2.34197e-06
2.34196e-06
2.34196e-06
2.34278e-06
2.35076e-06
2.35076e-06
2.35003e-06
2.34727e-06
2.34278e-06
2.34197e-06
2.34196e-06
2.34196e-06
2.34197e-06
2.34279e-06
2.35044e-06
2.34732e-06
2.34752e-06
2.34324e-06
2.34202e-06
2.34196e-06
2.34195e-06
2.34202e-06
2.34327e-06
2.3511e-06
2.35158e-06
2.35152e-06
2.35006e-06
2.34328e-06
2.34276e-06
2.34275e-06
2.34326e-06
2.3522e-06
2.35005e-06
2.35179e-06
2.35114e-06
2.34861e-06
2.35111e-06
2.35074e-06
2.35042e-06
2.35109e-06
2.35008e-06
2.35261e-06
2.35216e-06
2.35068e-06
2.34735e-06
2.35156e-06
2.35181e-06
2.32578e-06
2.32568e-06
2.32587e-06
2.32272e-06
2.3228e-06
2.32252e-06
2.32302e-06
2.32723e-06
2.32688e-06
2.32588e-06
2.32105e-06
2.31798e-06
2.31782e-06
2.31782e-06
2.31804e-06
2.32509e-06
2.32453e-06
2.32271e-06
2.31798e-06
2.31763e-06
2.31759e-06
2.31759e-06
2.31764e-06
2.31799e-06
2.32702e-06
2.32789e-06
2.32576e-06
2.32282e-06
2.31781e-06
2.31759e-06
2.31757e-06
2.31757e-06
2.31759e-06
2.31782e-06
2.32719e-06
2.32637e-06
2.32563e-06
2.32251e-06
2.31781e-06
2.31759e-06
2.31757e-06
2.31757e-06
2.31759e-06
2.31783e-06
2.32694e-06
2.32309e-06
2.323e-06
2.31802e-06
2.31763e-06
2.31759e-06
2.31759e-06
2.31763e-06
2.31804e-06
2.32736e-06
2.32722e-06
2.32722e-06
2.32507e-06
2.31799e-06
2.31781e-06
2.31781e-06
2.31799e-06
2.32831e-06
2.32583e-06
2.32764e-06
2.32687e-06
2.32453e-06
2.32702e-06
2.32719e-06
2.32693e-06
2.32735e-06
2.32587e-06
2.32815e-06
2.32786e-06
2.32635e-06
2.3231e-06
2.32721e-06
2.32765e-06
2.30129e-06
2.30119e-06
2.301e-06
2.29773e-06
2.29785e-06
2.29743e-06
2.2981e-06
2.30234e-06
2.30194e-06
2.301e-06
2.29534e-06
2.29259e-06
2.29255e-06
2.29255e-06
2.29261e-06
2.29972e-06
2.29976e-06
2.29774e-06
2.29258e-06
2.29251e-06
2.29251e-06
2.29251e-06
2.29252e-06
2.2926e-06
2.30234e-06
2.30319e-06
2.30129e-06
2.29784e-06
2.29255e-06
2.29251e-06
2.29251e-06
2.29251e-06
2.29251e-06
2.29255e-06
2.30297e-06
2.30194e-06
2.30119e-06
2.29741e-06
2.29255e-06
2.29251e-06
2.29251e-06
2.29251e-06
2.29251e-06
2.29256e-06
2.3028e-06
2.29876e-06
2.29811e-06
2.29261e-06
2.29251e-06
2.29251e-06
2.29251e-06
2.29252e-06
2.29261e-06
2.30291e-06
2.30273e-06
2.30233e-06
2.29971e-06
2.29259e-06
2.29255e-06
2.29255e-06
2.29259e-06
2.30382e-06
2.30114e-06
2.30287e-06
2.30193e-06
2.29977e-06
2.30234e-06
2.30297e-06
2.30281e-06
2.30291e-06
2.3012e-06
2.30328e-06
2.30322e-06
2.30192e-06
2.29875e-06
2.30274e-06
2.30289e-06
2.27633e-06
2.27632e-06
2.27597e-06
2.27268e-06
2.27279e-06
2.27229e-06
2.27305e-06
2.27732e-06
2.27691e-06
2.27598e-06
2.27006e-06
2.26738e-06
2.26738e-06
2.26738e-06
2.26739e-06
2.27448e-06
2.27474e-06
2.27267e-06
2.26738e-06
2.26737e-06
2.26737e-06
2.26737e-06
2.26737e-06
2.26738e-06
2.27734e-06
2.27821e-06
2.27642e-06
2.27276e-06
2.26738e-06
2.26737e-06
2.26737e-06
2.26737e-06
2.26737e-06
2.26738e-06
2.2781e-06
2.27705e-06
2.27636e-06
2.27232e-06
2.26738e-06
2.26737e-06
2.26737e-06
2.26737e-06
2.26737e-06
2.26738e-06
2.27796e-06
2.27392e-06
2.27304e-06
2.2674e-06
2.26737e-06
2.26737e-06
2.26737e-06
2.26737e-06
2.26739e-06
2.27797e-06
2.27782e-06
2.27731e-06
2.2745e-06
2.26739e-06
2.26738e-06
2.26738e-06
2.26739e-06
2.27892e-06
2.27618e-06
2.2779e-06
2.2769e-06
2.27474e-06
2.27735e-06
2.27811e-06
2.27797e-06
2.27798e-06
2.27622e-06
2.27826e-06
2.27824e-06
2.27704e-06
2.27391e-06
2.27782e-06
2.2779e-06
2.2513e-06
2.25125e-06
2.25088e-06
2.24755e-06
2.24767e-06
2.24715e-06
2.24795e-06
2.25221e-06
2.2518e-06
2.25089e-06
2.24491e-06
2.24224e-06
2.24223e-06
2.24223e-06
2.24224e-06
2.24934e-06
2.24965e-06
2.24757e-06
2.24224e-06
2.24223e-06
2.24223e-06
2.24223e-06
2.24223e-06
2.24223e-06
2.25224e-06
2.25311e-06
2.25136e-06
2.24764e-06
2.24224e-06
2.24223e-06
2.24223e-06
2.24223e-06
2.24223e-06
2.24223e-06
2.25304e-06
2.25197e-06
2.25122e-06
2.24717e-06
2.24224e-06
2.24224e-06
2.24223e-06
2.24223e-06
2.24223e-06
2.24223e-06
2.2529e-06
2.24886e-06
2.24794e-06
2.24224e-06
2.24223e-06
2.24223e-06
2.24223e-06
2.24223e-06
2.24223e-06
2.25289e-06
2.25274e-06
2.25222e-06
2.24935e-06
2.24224e-06
2.24223e-06
2.24223e-06
2.24223e-06
2.25387e-06
2.2511e-06
2.2528e-06
2.2518e-06
2.24965e-06
2.25226e-06
2.25305e-06
2.25291e-06
2.2529e-06
2.25113e-06
2.25315e-06
2.25317e-06
2.25196e-06
2.24886e-06
2.25275e-06
2.2528e-06
2.22619e-06
2.22614e-06
2.22575e-06
2.22243e-06
2.22255e-06
2.22203e-06
2.22282e-06
2.22709e-06
2.22667e-06
2.22575e-06
2.21972e-06
2.2171e-06
2.2171e-06
2.2171e-06
2.2171e-06
2.22421e-06
2.22452e-06
2.22243e-06
2.2171e-06
2.2171e-06
2.2171e-06
2.2171e-06
2.2171e-06
2.2171e-06
2.22713e-06
2.22799e-06
2.22623e-06
2.22253e-06
2.2171e-06
2.2171e-06
2.2171e-06
2.2171e-06
2.2171e-06
2.2171e-06
2.22793e-06
2.22685e-06
2.22618e-06
2.22204e-06
2.2171e-06
2.2171e-06
2.2171e-06
2.2171e-06
2.2171e-06
2.2171e-06
2.22779e-06
2.22374e-06
2.22281e-06
2.2171e-06
2.2171e-06
2.2171e-06
2.2171e-06
2.2171e-06
2.2171e-06
2.22777e-06
2.22762e-06
2.2271e-06
2.2242e-06
2.2171e-06
2.2171e-06
2.21709e-06
2.2171e-06
2.22874e-06
2.22598e-06
2.22767e-06
2.22668e-06
2.22452e-06
2.22714e-06
2.22794e-06
2.2278e-06
2.22778e-06
2.22601e-06
2.22803e-06
2.22805e-06
2.22686e-06
2.22376e-06
2.22763e-06
2.22766e-06
2.20106e-06
2.20101e-06
2.20062e-06
2.1973e-06
2.19742e-06
2.19689e-06
2.19769e-06
2.20196e-06
2.20154e-06
2.20061e-06
2.19459e-06
2.19196e-06
2.19196e-06
2.19196e-06
2.19196e-06
2.19907e-06
2.1994e-06
2.19727e-06
2.19196e-06
2.19196e-06
2.19196e-06
2.19196e-06
2.19196e-06
2.19196e-06
2.202e-06
2.20286e-06
2.201e-06
2.19744e-06
2.19196e-06
2.19196e-06
2.19196e-06
2.19196e-06
2.19196e-06
2.19196e-06
2.2028e-06
2.20173e-06
2.20093e-06
2.19692e-06
2.19196e-06
2.19196e-06
2.19196e-06
2.19196e-06
2.19196e-06
2.19196e-06
2.20267e-06
2.19863e-06
2.19767e-06
2.19196e-06
2.19196e-06
2.19196e-06
2.19196e-06
2.19196e-06
2.19196e-06
2.20265e-06
2.2025e-06
2.20198e-06
2.19907e-06
2.19197e-06
2.19196e-06
2.19196e-06
2.19196e-06
2.20362e-06
2.20086e-06
2.20255e-06
2.20156e-06
2.19939e-06
2.202e-06
2.20281e-06
2.20267e-06
2.20265e-06
2.20089e-06
2.2029e-06
2.20291e-06
2.20172e-06
2.19862e-06
2.20251e-06
2.20254e-06
2.17593e-06
2.17588e-06
2.17549e-06
2.17217e-06
2.17229e-06
2.17175e-06
2.17256e-06
2.17683e-06
2.17641e-06
2.17548e-06
2.16946e-06
2.16683e-06
2.16683e-06
2.16683e-06
2.16683e-06
2.17394e-06
2.17427e-06
2.17217e-06
2.16684e-06
2.16683e-06
2.16683e-06
2.16683e-06
2.16683e-06
2.16683e-06
2.17686e-06
2.17773e-06
2.17587e-06
2.1723e-06
2.16683e-06
2.16683e-06
2.16683e-06
2.16683e-06
2.16683e-06
2.16683e-06
2.17767e-06
2.1766e-06
2.17577e-06
2.17177e-06
2.16683e-06
2.16683e-06
2.16683e-06
2.16683e-06
2.16683e-06
2.16683e-06
2.17754e-06
2.1735e-06
2.17252e-06
2.16683e-06
2.16683e-06
2.16683e-06
2.16683e-06
2.16683e-06
2.16683e-06
2.17752e-06
2.17737e-06
2.17681e-06
2.17393e-06
2.16683e-06
2.16683e-06
2.16683e-06
2.16683e-06
2.1785e-06
2.17573e-06
2.17741e-06
2.17641e-06
2.17425e-06
2.17687e-06
2.17768e-06
2.17754e-06
2.17752e-06
2.17576e-06
2.17777e-06
2.17777e-06
2.1766e-06
2.1735e-06
2.17737e-06
2.17741e-06
2.1508e-06
2.15076e-06
2.15035e-06
2.14703e-06
2.14715e-06
2.14662e-06
2.14743e-06
2.1517e-06
2.15128e-06
2.15034e-06
2.14433e-06
2.1417e-06
2.1417e-06
2.1417e-06
2.1417e-06
2.1488e-06
2.14913e-06
2.14701e-06
2.1417e-06
2.1417e-06
2.1417e-06
2.1417e-06
2.1417e-06
2.1417e-06
2.15173e-06
2.1526e-06
2.15071e-06
2.14715e-06
2.1417e-06
2.1417e-06
2.1417e-06
2.1417e-06
2.1417e-06
2.1417e-06
2.15254e-06
2.15147e-06
2.1507e-06
2.14665e-06
2.1417e-06
2.1417e-06
2.1417e-06
2.1417e-06
2.1417e-06
2.1417e-06
2.1524e-06
2.14837e-06
2.14741e-06
2.14169e-06
2.14169e-06
2.1417e-06
2.1417e-06
2.1417e-06
2.1417e-06
2.15239e-06
2.15223e-06
2.15169e-06
2.1488e-06
2.14169e-06
2.1417e-06
2.1417e-06
2.1417e-06
2.15337e-06
2.1506e-06
2.15228e-06
2.15128e-06
2.14912e-06
2.15173e-06
2.15253e-06
2.15241e-06
2.15239e-06
2.15063e-06
2.15264e-06
2.15264e-06
2.15146e-06
2.14836e-06
2.15224e-06
2.15227e-06
2.12567e-06
2.12561e-06
2.12522e-06
2.1219e-06
2.12202e-06
2.12149e-06
2.12229e-06
2.12656e-06
2.12615e-06
2.12522e-06
2.1192e-06
2.11656e-06
2.11656e-06
2.11656e-06
2.11656e-06
2.12367e-06
2.124e-06
2.1219e-06
2.11656e-06
2.11656e-06
2.11656e-06
2.11656e-06
2.11656e-06
2.11656e-06
2.1266e-06
2.12746e-06
2.12566e-06
2.12202e-06
2.11656e-06
2.11656e-06
2.11656e-06
2.11656e-06
2.11656e-06
2.11656e-06
2.1274e-06
2.12634e-06
2.12561e-06
2.12148e-06
2.11656e-06
2.11656e-06
2.11656e-06
2.11656e-06
2.11656e-06
2.11656e-06
2.12727e-06
2.12323e-06
2.12229e-06
2.11656e-06
2.11656e-06
2.11656e-06
2.11656e-06
2.11656e-06
2.11656e-06
2.12725e-06
2.1271e-06
2.12656e-06
2.12367e-06
2.11656e-06
2.11656e-06
2.11656e-06
2.11656e-06
2.12823e-06
2.12547e-06
2.12715e-06
2.12614e-06
2.12399e-06
2.1266e-06
2.12741e-06
2.12728e-06
2.12726e-06
2.12549e-06
2.12751e-06
2.12751e-06
2.12633e-06
2.12323e-06
2.12711e-06
2.12714e-06
2.10053e-06
2.10049e-06
2.10009e-06
2.09677e-06
2.09688e-06
2.09635e-06
2.09716e-06
2.10143e-06
2.10101e-06
2.10009e-06
2.09407e-06
2.09143e-06
2.09143e-06
2.09143e-06
2.09143e-06
2.09853e-06
2.09886e-06
2.09677e-06
2.09142e-06
2.09143e-06
2.09143e-06
2.09143e-06
2.09143e-06
2.09143e-06
2.10146e-06
2.10233e-06
2.10053e-06
2.09686e-06
2.09143e-06
2.09143e-06
2.09143e-06
2.09143e-06
2.09143e-06
2.09143e-06
2.10227e-06
2.1012e-06
2.10047e-06
2.09638e-06
2.09143e-06
2.09143e-06
2.09143e-06
2.09143e-06
2.09143e-06
2.09143e-06
2.10214e-06
2.0981e-06
2.09713e-06
2.09143e-06
2.09143e-06
2.09143e-06
2.09143e-06
2.09143e-06
2.09143e-06
2.10211e-06
2.10196e-06
2.10141e-06
2.09853e-06
2.09143e-06
2.09143e-06
2.09143e-06
2.09143e-06
2.1031e-06
2.10033e-06
2.10201e-06
2.101e-06
2.09886e-06
2.10147e-06
2.10227e-06
2.10214e-06
2.10213e-06
2.10036e-06
2.10237e-06
2.10237e-06
2.10119e-06
2.0981e-06
2.10197e-06
2.10201e-06
2.0754e-06
2.07535e-06
2.07495e-06
2.07163e-06
2.07175e-06
2.07122e-06
2.07202e-06
2.07629e-06
2.07588e-06
2.07495e-06
2.06893e-06
2.06629e-06
2.06629e-06
2.06629e-06
2.06629e-06
2.0734e-06
2.07373e-06
2.07163e-06
2.06629e-06
2.06629e-06
2.06629e-06
2.06629e-06
2.06629e-06
2.06629e-06
2.07633e-06
2.07719e-06
2.07551e-06
2.0717e-06
2.06629e-06
2.06629e-06
2.06629e-06
2.06629e-06
2.06629e-06
2.06629e-06
2.07713e-06
2.07606e-06
2.07528e-06
2.07126e-06
2.06629e-06
2.06629e-06
2.06629e-06
2.06629e-06
2.06629e-06
2.06629e-06
2.077e-06
2.07296e-06
2.07202e-06
2.06629e-06
2.06629e-06
2.06629e-06
2.06629e-06
2.06629e-06
2.06629e-06
2.07698e-06
2.07683e-06
2.07629e-06
2.0734e-06
2.06629e-06
2.06629e-06
2.06629e-06
2.06629e-06
2.07796e-06
2.0752e-06
2.07688e-06
2.07587e-06
2.07372e-06
2.07634e-06
2.07715e-06
2.07702e-06
2.07699e-06
2.07522e-06
2.07724e-06
2.07724e-06
2.07606e-06
2.07296e-06
2.07684e-06
2.07687e-06
2.05026e-06
2.05021e-06
2.04982e-06
2.0465e-06
2.04662e-06
2.04608e-06
2.04689e-06
2.05116e-06
2.05074e-06
2.04982e-06
2.04379e-06
2.04116e-06
2.04116e-06
2.04116e-06
2.04116e-06
2.04827e-06
2.04859e-06
2.04651e-06
2.04116e-06
2.04116e-06
2.04116e-06
2.04116e-06
2.04116e-06
2.04116e-06
2.05119e-06
2.05206e-06
2.05032e-06
2.04658e-06
2.04116e-06
2.04116e-06
2.04116e-06
2.04116e-06
2.04116e-06
2.04116e-06
2.052e-06
2.05093e-06
2.05027e-06
2.0461e-06
2.04116e-06
2.04116e-06
2.04116e-06
2.04116e-06
2.04116e-06
2.04116e-06
2.05187e-06
2.04783e-06
2.04686e-06
2.04116e-06
2.04116e-06
2.04116e-06
2.04116e-06
2.04116e-06
2.04116e-06
2.05185e-06
2.0517e-06
2.05116e-06
2.04826e-06
2.04116e-06
2.04116e-06
2.04116e-06
2.04115e-06
2.05283e-06
2.05006e-06
2.05175e-06
2.05074e-06
2.04859e-06
2.0512e-06
2.05202e-06
2.05188e-06
2.05185e-06
2.05008e-06
2.0521e-06
2.05211e-06
2.05092e-06
2.04783e-06
2.0517e-06
2.05173e-06
2.02513e-06
2.02509e-06
2.02468e-06
2.02136e-06
2.02147e-06
2.02094e-06
2.02176e-06
2.02603e-06
2.02561e-06
2.02467e-06
2.01865e-06
2.01602e-06
2.01602e-06
2.01602e-06
2.01603e-06
2.02313e-06
2.02346e-06
2.02135e-06
2.01602e-06
2.01602e-06
2.01602e-06
2.01602e-06
2.01602e-06
2.01602e-06
2.02606e-06
2.02692e-06
2.02512e-06
2.02147e-06
2.01603e-06
2.01602e-06
2.01602e-06
2.01602e-06
2.01602e-06
2.01602e-06
2.02686e-06
2.0258e-06
2.02503e-06
2.02095e-06
2.01602e-06
2.01602e-06
2.01602e-06
2.01602e-06
2.01602e-06
2.01603e-06
2.02673e-06
2.02269e-06
2.02175e-06
2.01602e-06
2.01602e-06
2.01602e-06
2.01603e-06
2.01603e-06
2.01603e-06
2.02672e-06
2.02656e-06
2.02604e-06
2.02312e-06
2.01602e-06
2.01602e-06
2.01603e-06
2.01603e-06
2.02769e-06
2.02493e-06
2.02661e-06
2.02561e-06
2.02345e-06
2.02606e-06
2.02687e-06
2.02674e-06
2.02672e-06
2.02495e-06
2.02697e-06
2.02699e-06
2.02578e-06
2.02269e-06
2.02657e-06
2.0266e-06
1.99999e-06
1.99994e-06
1.99955e-06
1.99623e-06
1.99635e-06
1.99581e-06
1.99662e-06
2.00089e-06
2.00047e-06
1.99954e-06
1.99352e-06
1.99089e-06
1.99089e-06
1.99089e-06
1.99089e-06
1.998e-06
1.99833e-06
1.99622e-06
1.99089e-06
1.99089e-06
1.99089e-06
1.99089e-06
1.99089e-06
1.99089e-06
2.00093e-06
2.00179e-06
1.99994e-06
1.99633e-06
1.99089e-06
1.99089e-06
1.99089e-06
1.99089e-06
1.99089e-06
1.99089e-06
2.00173e-06
2.00066e-06
1.99996e-06
1.99581e-06
1.99089e-06
1.99089e-06
1.99089e-06
1.99089e-06
1.99089e-06
1.99089e-06
2.0016e-06
1.99756e-06
1.99662e-06
1.99089e-06
1.99089e-06
1.99089e-06
1.99089e-06
1.99089e-06
1.99089e-06
2.00158e-06
2.00143e-06
2.00088e-06
1.99799e-06
1.99089e-06
1.99089e-06
1.99089e-06
1.99089e-06
2.00256e-06
1.99979e-06
2.00148e-06
2.00047e-06
1.99832e-06
2.00093e-06
2.00172e-06
2.00161e-06
2.00158e-06
1.99982e-06
2.00182e-06
2.00183e-06
2.00065e-06
1.99754e-06
2.00143e-06
2.00147e-06
1.97486e-06
1.9748e-06
1.97441e-06
1.97109e-06
1.97122e-06
1.97068e-06
1.97148e-06
1.97575e-06
1.97534e-06
1.97441e-06
1.96839e-06
1.96576e-06
1.96576e-06
1.96576e-06
1.96576e-06
1.97286e-06
1.97319e-06
1.97109e-06
1.96576e-06
1.96576e-06
1.96576e-06
1.96576e-06
1.96576e-06
1.96576e-06
1.97579e-06
1.97666e-06
1.97484e-06
1.97121e-06
1.96576e-06
1.96576e-06
1.96576e-06
1.96576e-06
1.96576e-06
1.96576e-06
1.9766e-06
1.97553e-06
1.97482e-06
1.97068e-06
1.96576e-06
1.96575e-06
1.96576e-06
1.96576e-06
1.96576e-06
1.96576e-06
1.97647e-06
1.97243e-06
1.97149e-06
1.96575e-06
1.96575e-06
1.96575e-06
1.96576e-06
1.96576e-06
1.96576e-06
1.97645e-06
1.9763e-06
1.97576e-06
1.97286e-06
1.96575e-06
1.96575e-06
1.96576e-06
1.96576e-06
1.97743e-06
1.97466e-06
1.97634e-06
1.97534e-06
1.97319e-06
1.97579e-06
1.97658e-06
1.97647e-06
1.97644e-06
1.97469e-06
1.9767e-06
1.97669e-06
1.97559e-06
1.97236e-06
1.97628e-06
1.97633e-06
1.94973e-06
1.94968e-06
1.94928e-06
1.94596e-06
1.94607e-06
1.94554e-06
1.94635e-06
1.95062e-06
1.95021e-06
1.94927e-06
1.94325e-06
1.94062e-06
1.94062e-06
1.94062e-06
1.94062e-06
1.94773e-06
1.94806e-06
1.94595e-06
1.94062e-06
1.94062e-06
1.94062e-06
1.94062e-06
1.94062e-06
1.94062e-06
1.95066e-06
1.95152e-06
1.94972e-06
1.9461e-06
1.94062e-06
1.94062e-06
1.94062e-06
1.94062e-06
1.94062e-06
1.94062e-06
1.95146e-06
1.95039e-06
1.94962e-06
1.94555e-06
1.94062e-06
1.94062e-06
1.94062e-06
1.94062e-06
1.94062e-06
1.94062e-06
1.95133e-06
1.94729e-06
1.94634e-06
1.94062e-06
1.94062e-06
1.94062e-06
1.94062e-06
1.94062e-06
1.94062e-06
1.95131e-06
1.95116e-06
1.95062e-06
1.94773e-06
1.94062e-06
1.94062e-06
1.94062e-06
1.94062e-06
1.95229e-06
1.94952e-06
1.95121e-06
1.95021e-06
1.94806e-06
1.95066e-06
1.95145e-06
1.95135e-06
1.95132e-06
1.94956e-06
1.95156e-06
1.95157e-06
1.95045e-06
1.94728e-06
1.95114e-06
1.95119e-06
1.92459e-06
1.92454e-06
1.92415e-06
1.92083e-06
1.92095e-06
1.92041e-06
1.92121e-06
1.92548e-06
1.92507e-06
1.92414e-06
1.91812e-06
1.91549e-06
1.91549e-06
1.91549e-06
1.91549e-06
1.92259e-06
1.92292e-06
1.92082e-06
1.91549e-06
1.91549e-06
1.91549e-06
1.91549e-06
1.91549e-06
1.91549e-06
1.92552e-06
1.92639e-06
1.92455e-06
1.92095e-06
1.91549e-06
1.91549e-06
1.91549e-06
1.91549e-06
1.91549e-06
1.91549e-06
1.92633e-06
1.92526e-06
1.92451e-06
1.9204e-06
1.91549e-06
1.91549e-06
1.91549e-06
1.91549e-06
1.91549e-06
1.91549e-06
1.92619e-06
1.92215e-06
1.92121e-06
1.91549e-06
1.91549e-06
1.91549e-06
1.91549e-06
1.91549e-06
1.91549e-06
1.92618e-06
1.92603e-06
1.9255e-06
1.92259e-06
1.91549e-06
1.91549e-06
1.91549e-06
1.91548e-06
1.92716e-06
1.92439e-06
1.92607e-06
1.92507e-06
1.92291e-06
1.92551e-06
1.92633e-06
1.92624e-06
1.92619e-06
1.92442e-06
1.92642e-06
1.92639e-06
1.92518e-06
1.92221e-06
1.92604e-06
1.9261e-06
1.89945e-06
1.8994e-06
1.89901e-06
1.8957e-06
1.89583e-06
1.89528e-06
1.89607e-06
1.90035e-06
1.89993e-06
1.899e-06
1.89298e-06
1.89035e-06
1.89035e-06
1.89035e-06
1.89035e-06
1.89746e-06
1.89779e-06
1.89568e-06
1.89035e-06
1.89035e-06
1.89035e-06
1.89035e-06
1.89035e-06
1.89035e-06
1.90039e-06
1.90125e-06
1.89942e-06
1.8958e-06
1.89035e-06
1.89035e-06
1.89035e-06
1.89035e-06
1.89035e-06
1.89035e-06
1.9012e-06
1.90013e-06
1.89937e-06
1.89527e-06
1.89035e-06
1.89035e-06
1.89035e-06
1.89035e-06
1.89035e-06
1.89035e-06
1.90106e-06
1.89702e-06
1.89609e-06
1.89035e-06
1.89035e-06
1.89035e-06
1.89035e-06
1.89035e-06
1.89035e-06
1.90104e-06
1.90089e-06
1.90037e-06
1.89746e-06
1.89035e-06
1.89035e-06
1.89035e-06
1.89035e-06
1.90203e-06
1.89925e-06
1.90094e-06
1.89994e-06
1.89778e-06
1.90039e-06
1.9012e-06
1.9011e-06
1.90105e-06
1.8993e-06
1.90129e-06
1.90124e-06
1.90005e-06
1.89711e-06
1.90087e-06
1.90101e-06
1.87433e-06
1.87425e-06
1.87388e-06
1.87056e-06
1.87069e-06
1.87014e-06
1.87094e-06
1.87521e-06
1.8748e-06
1.87387e-06
1.86785e-06
1.86522e-06
1.86522e-06
1.86522e-06
1.86522e-06
1.87232e-06
1.87265e-06
1.87055e-06
1.86522e-06
1.86522e-06
1.86522e-06
1.86522e-06
1.86522e-06
1.86522e-06
1.87525e-06
1.87612e-06
1.87433e-06
1.87067e-06
1.86522e-06
1.86522e-06
1.86522e-06
1.86522e-06
1.86522e-06
1.86522e-06
1.87606e-06
1.87499e-06
1.87428e-06
1.87014e-06
1.86522e-06
1.86522e-06
1.86522e-06
1.86522e-06
1.86522e-06
1.86522e-06
1.87592e-06
1.87188e-06
1.87096e-06
1.86522e-06
1.86522e-06
1.86522e-06
1.86522e-06
1.86522e-06
1.86522e-06
1.8759e-06
1.87575e-06
1.87522e-06
1.87233e-06
1.86522e-06
1.86522e-06
1.86522e-06
1.86522e-06
1.87689e-06
1.87412e-06
1.8758e-06
1.87481e-06
1.87265e-06
1.87526e-06
1.87605e-06
1.87594e-06
1.8759e-06
1.87415e-06
1.87615e-06
1.87615e-06
1.87504e-06
1.87182e-06
1.87571e-06
1.87582e-06
1.84919e-06
1.84913e-06
1.84874e-06
1.84542e-06
1.84556e-06
1.84501e-06
1.84581e-06
1.85008e-06
1.84966e-06
1.84873e-06
1.84272e-06
1.84009e-06
1.84009e-06
1.84009e-06
1.84008e-06
1.84719e-06
1.84752e-06
1.84542e-06
1.84008e-06
1.84008e-06
1.84008e-06
1.84008e-06
1.84008e-06
1.84008e-06
1.85012e-06
1.85098e-06
1.84914e-06
1.84553e-06
1.84008e-06
1.84008e-06
1.84008e-06
1.84008e-06
1.84008e-06
1.84008e-06
1.85092e-06
1.84986e-06
1.84913e-06
1.84501e-06
1.84008e-06
1.84008e-06
1.84008e-06
1.84009e-06
1.84009e-06
1.84009e-06
1.85079e-06
1.84675e-06
1.84582e-06
1.84008e-06
1.84008e-06
1.84009e-06
1.84009e-06
1.84009e-06
1.84009e-06
1.85078e-06
1.85062e-06
1.85009e-06
1.84719e-06
1.84008e-06
1.84009e-06
1.84009e-06
1.84009e-06
1.85175e-06
1.84899e-06
1.85067e-06
1.84967e-06
1.84752e-06
1.85012e-06
1.85092e-06
1.85082e-06
1.85078e-06
1.84902e-06
1.85102e-06
1.85104e-06
1.84992e-06
1.84675e-06
1.8506e-06
1.85065e-06
1.82399e-06
1.82397e-06
1.82361e-06
1.82029e-06
1.82041e-06
1.81987e-06
1.82067e-06
1.82496e-06
1.82454e-06
1.8236e-06
1.81758e-06
1.81495e-06
1.81495e-06
1.81495e-06
1.81495e-06
1.82206e-06
1.82239e-06
1.82028e-06
1.81495e-06
1.81495e-06
1.81495e-06
1.81495e-06
1.81495e-06
1.81495e-06
1.82499e-06
1.82585e-06
1.82405e-06
1.82041e-06
1.81495e-06
1.81495e-06
1.81495e-06
1.81495e-06
1.81495e-06
1.81495e-06
1.82579e-06
1.82472e-06
1.82398e-06
1.81986e-06
1.81495e-06
1.81495e-06
1.81495e-06
1.81495e-06
1.81495e-06
1.81495e-06
1.82566e-06
1.82162e-06
1.82068e-06
1.81495e-06
1.81495e-06
1.81495e-06
1.81495e-06
1.81495e-06
1.81495e-06
1.82564e-06
1.82549e-06
1.82495e-06
1.82205e-06
1.81495e-06
1.81495e-06
1.81495e-06
1.81495e-06
1.82663e-06
1.82386e-06
1.82554e-06
1.82453e-06
1.82237e-06
1.82497e-06
1.82579e-06
1.8257e-06
1.82565e-06
1.82389e-06
1.82589e-06
1.82584e-06
1.82468e-06
1.82165e-06
1.82549e-06
1.82559e-06
1.79886e-06
1.79884e-06
1.79847e-06
1.79515e-06
1.79526e-06
1.79473e-06
1.79555e-06
1.79983e-06
1.79941e-06
1.79846e-06
1.79244e-06
1.78981e-06
1.78981e-06
1.78981e-06
1.78982e-06
1.79693e-06
1.79726e-06
1.79514e-06
1.78981e-06
1.78981e-06
1.78981e-06
1.78982e-06
1.78982e-06
1.78982e-06
1.79985e-06
1.80072e-06
1.79893e-06
1.79525e-06
1.78981e-06
1.78981e-06
1.78981e-06
1.78982e-06
1.78982e-06
1.78982e-06
1.80066e-06
1.79959e-06
1.79888e-06
1.79473e-06
1.78981e-06
1.78981e-06
1.78982e-06
1.78982e-06
1.78982e-06
1.78982e-06
1.80052e-06
1.79649e-06
1.79555e-06
1.78981e-06
1.78982e-06
1.78982e-06
1.78982e-06
1.78981e-06
1.78982e-06
1.8005e-06
1.80035e-06
1.79981e-06
1.79691e-06
1.78982e-06
1.78982e-06
1.78981e-06
1.78981e-06
1.80149e-06
1.79871e-06
1.8004e-06
1.7994e-06
1.79724e-06
1.79984e-06
1.80065e-06
1.80056e-06
1.80051e-06
1.79876e-06
1.80076e-06
1.8007e-06
1.7995e-06
1.79655e-06
1.80034e-06
1.80046e-06
1.77379e-06
1.77376e-06
1.77333e-06
1.77001e-06
1.77012e-06
1.7696e-06
1.77042e-06
1.77469e-06
1.77427e-06
1.77333e-06
1.7673e-06
1.76468e-06
1.76468e-06
1.76468e-06
1.76468e-06
1.77179e-06
1.77212e-06
1.77001e-06
1.76468e-06
1.76468e-06
1.76468e-06
1.76468e-06
1.76468e-06
1.76468e-06
1.77472e-06
1.77558e-06
1.77377e-06
1.77014e-06
1.76468e-06
1.76468e-06
1.76468e-06
1.76468e-06
1.76468e-06
1.76468e-06
1.77552e-06
1.77445e-06
1.77373e-06
1.7696e-06
1.76468e-06
1.76468e-06
1.76468e-06
1.76468e-06
1.76468e-06
1.76468e-06
1.77539e-06
1.77135e-06
1.7704e-06
1.76468e-06
1.76468e-06
1.76468e-06
1.76468e-06
1.76468e-06
1.76468e-06
1.77537e-06
1.77522e-06
1.77468e-06
1.77177e-06
1.76468e-06
1.76468e-06
1.76468e-06
1.76468e-06
1.77635e-06
1.77358e-06
1.77527e-06
1.77426e-06
1.7721e-06
1.77471e-06
1.77554e-06
1.77542e-06
1.77538e-06
1.77361e-06
1.77561e-06
1.7756e-06
1.77439e-06
1.7714e-06
1.77524e-06
1.77527e-06
1.74863e-06
1.7486e-06
1.7482e-06
1.74488e-06
1.74499e-06
1.74446e-06
1.74528e-06
1.74955e-06
1.74913e-06
1.74819e-06
1.74217e-06
1.73955e-06
1.73955e-06
1.73955e-06
1.73955e-06
1.74666e-06
1.74699e-06
1.74487e-06
1.73954e-06
1.73955e-06
1.73955e-06
1.73955e-06
1.73955e-06
1.73955e-06
1.74958e-06
1.75045e-06
1.74866e-06
1.74502e-06
1.73954e-06
1.73955e-06
1.73955e-06
1.73955e-06
1.73955e-06
1.73955e-06
1.75039e-06
1.74932e-06
1.7486e-06
1.74448e-06
1.73954e-06
1.73955e-06
1.73955e-06
1.73955e-06
1.73955e-06
1.73955e-06
1.75026e-06
1.74622e-06
1.74526e-06
1.73955e-06
1.73955e-06
1.73955e-06
1.73955e-06
1.73954e-06
1.73954e-06
1.75023e-06
1.75008e-06
1.74954e-06
1.74664e-06
1.73955e-06
1.73955e-06
1.73955e-06
1.73955e-06
1.75122e-06
1.74845e-06
1.75013e-06
1.74913e-06
1.74697e-06
1.74959e-06
1.7504e-06
1.75026e-06
1.75024e-06
1.74848e-06
1.75048e-06
1.75049e-06
1.74931e-06
1.74622e-06
1.75008e-06
1.75012e-06
1.72352e-06
1.72347e-06
1.72307e-06
1.71976e-06
1.71987e-06
1.71934e-06
1.72014e-06
1.72441e-06
1.724e-06
1.72306e-06
1.71703e-06
1.71441e-06
1.71441e-06
1.71441e-06
1.71441e-06
1.72152e-06
1.72185e-06
1.71973e-06
1.71441e-06
1.71441e-06
1.71441e-06
1.71441e-06
1.71441e-06
1.71441e-06
1.72445e-06
1.72531e-06
1.72348e-06
1.71988e-06
1.71441e-06
1.71441e-06
1.71441e-06
1.71441e-06
1.71441e-06
1.71441e-06
1.72525e-06
1.72419e-06
1.72338e-06
1.71936e-06
1.71441e-06
1.71441e-06
1.71441e-06
1.71441e-06
1.71441e-06
1.71441e-06
1.72512e-06
1.72108e-06
1.72013e-06
1.71441e-06
1.71441e-06
1.71441e-06
1.71441e-06
1.71441e-06
1.71441e-06
1.7251e-06
1.72495e-06
1.72442e-06
1.72151e-06
1.71441e-06
1.71442e-06
1.71441e-06
1.71441e-06
1.72608e-06
1.72331e-06
1.725e-06
1.724e-06
1.72184e-06
1.72445e-06
1.72526e-06
1.72512e-06
1.72511e-06
1.72334e-06
1.72535e-06
1.72536e-06
1.72417e-06
1.72107e-06
1.72495e-06
1.72499e-06
1.69839e-06
1.69834e-06
1.69794e-06
1.69462e-06
1.69474e-06
1.6942e-06
1.69501e-06
1.69928e-06
1.69886e-06
1.69794e-06
1.69191e-06
1.68928e-06
1.68928e-06
1.68928e-06
1.68928e-06
1.69638e-06
1.69671e-06
1.69462e-06
1.68928e-06
1.68928e-06
1.68928e-06
1.68928e-06
1.68928e-06
1.68928e-06
1.69931e-06
1.70018e-06
1.6983e-06
1.69475e-06
1.68928e-06
1.68928e-06
1.68928e-06
1.68928e-06
1.68928e-06
1.68928e-06
1.70012e-06
1.69905e-06
1.69822e-06
1.69423e-06
1.68928e-06
1.68928e-06
1.68928e-06
1.68928e-06
1.68928e-06
1.68928e-06
1.69998e-06
1.69595e-06
1.69497e-06
1.68928e-06
1.68928e-06
1.68928e-06
1.68928e-06
1.68928e-06
1.68928e-06
1.69997e-06
1.69982e-06
1.69927e-06
1.69637e-06
1.68928e-06
1.68928e-06
1.68928e-06
1.68928e-06
1.70095e-06
1.69818e-06
1.69987e-06
1.69887e-06
1.6967e-06
1.69932e-06
1.70013e-06
1.7e-06
1.69997e-06
1.6982e-06
1.70022e-06
1.70024e-06
1.69904e-06
1.69595e-06
1.69981e-06
1.69985e-06
1.67325e-06
1.6732e-06
1.67281e-06
1.66949e-06
1.6696e-06
1.66907e-06
1.66988e-06
1.67415e-06
1.67373e-06
1.6728e-06
1.66678e-06
1.66415e-06
1.66415e-06
1.66415e-06
1.66415e-06
1.67125e-06
1.67158e-06
1.66947e-06
1.66415e-06
1.66415e-06
1.66415e-06
1.66415e-06
1.66415e-06
1.66415e-06
1.67418e-06
1.67504e-06
1.67315e-06
1.66961e-06
1.66414e-06
1.66415e-06
1.66415e-06
1.66415e-06
1.66415e-06
1.66415e-06
1.67498e-06
1.67392e-06
1.67318e-06
1.66908e-06
1.66414e-06
1.66415e-06
1.66415e-06
1.66415e-06
1.66415e-06
1.66415e-06
1.67485e-06
1.67081e-06
1.66986e-06
1.66414e-06
1.66414e-06
1.66414e-06
1.66415e-06
1.66414e-06
1.66415e-06
1.67483e-06
1.67468e-06
1.67416e-06
1.67126e-06
1.66414e-06
1.66414e-06
1.66415e-06
1.66415e-06
1.67581e-06
1.67305e-06
1.67473e-06
1.67373e-06
1.67158e-06
1.67419e-06
1.67499e-06
1.67486e-06
1.67484e-06
1.67307e-06
1.67509e-06
1.67509e-06
1.67391e-06
1.67081e-06
1.67469e-06
1.67472e-06
1.64812e-06
1.64807e-06
1.64768e-06
1.64435e-06
1.64447e-06
1.64394e-06
1.64474e-06
1.64901e-06
1.6486e-06
1.64768e-06
1.64165e-06
1.63901e-06
1.63901e-06
1.63901e-06
1.63901e-06
1.64612e-06
1.64645e-06
1.64436e-06
1.63902e-06
1.63901e-06
1.63901e-06
1.63901e-06
1.63901e-06
1.63901e-06
1.64905e-06
1.64992e-06
1.64812e-06
1.64454e-06
1.63901e-06
1.63901e-06
1.63901e-06
1.63901e-06
1.63901e-06
1.63901e-06
1.64986e-06
1.64879e-06
1.64804e-06
1.64392e-06
1.63901e-06
1.63901e-06
1.63901e-06
1.63901e-06
1.63901e-06
1.63901e-06
1.64972e-06
1.64568e-06
1.64472e-06
1.63901e-06
1.63901e-06
1.63901e-06
1.63901e-06
1.63901e-06
1.63901e-06
1.6497e-06
1.64955e-06
1.649e-06
1.64611e-06
1.63901e-06
1.63901e-06
1.63901e-06
1.63901e-06
1.65068e-06
1.64792e-06
1.6496e-06
1.64859e-06
1.64643e-06
1.64905e-06
1.64985e-06
1.64973e-06
1.64971e-06
1.64794e-06
1.64995e-06
1.64996e-06
1.64877e-06
1.64568e-06
1.64956e-06
1.64959e-06
1.62298e-06
1.62293e-06
1.62254e-06
1.61922e-06
1.61934e-06
1.6188e-06
1.61961e-06
1.62388e-06
1.62346e-06
1.62254e-06
1.61651e-06
1.61388e-06
1.61388e-06
1.61388e-06
1.61388e-06
1.62098e-06
1.62131e-06
1.61921e-06
1.61388e-06
1.61388e-06
1.61388e-06
1.61388e-06
1.61388e-06
1.61388e-06
1.62391e-06
1.62478e-06
1.62298e-06
1.61934e-06
1.61387e-06
1.61388e-06
1.61388e-06
1.61388e-06
1.61388e-06
1.61388e-06
1.62472e-06
1.62365e-06
1.6229e-06
1.6188e-06
1.61387e-06
1.61388e-06
1.61388e-06
1.61388e-06
1.61388e-06
1.61388e-06
1.62459e-06
1.62055e-06
1.6196e-06
1.61387e-06
1.61387e-06
1.61388e-06
1.61388e-06
1.61388e-06
1.61388e-06
1.62456e-06
1.62441e-06
1.62387e-06
1.62098e-06
1.61387e-06
1.61387e-06
1.61388e-06
1.61388e-06
1.62555e-06
1.62278e-06
1.62446e-06