/*--------------------------------*- C++ -*----------------------------------*\
| =========                 |                                                 |
| \\      /  F ield         | OpenFOAM: The Open Source CFD Toolbox           |
|  \\    /   O peration     | Version:  v2012                                 |
|   \\  /    A nd           | Website:  www.openfoam.com                      |
|    \\/     M anipulation  |                                                 |
\*---------------------------------------------------------------------------*/
FoamFile
{
    version     2.0;
    format      ascii;
    class       volScalarField;
    location    "9.5";
    object      p;
}
// * * * * * * * * * * * * * * * * * * * * * * * * * * * * * * * * * * * * * //

dimensions      [0 2 -2 0 0 0 0];


internalField   nonuniform List<scalar> 
244288
(
1.56763e-06
1.5679e-06
1.56785e-06
1.5677e-06
1.56764e-06
1.56772e-06
1.56786e-06
1.5679e-06
1.56791e-06
1.56767e-06
1.56739e-06
1.56728e-06
1.56742e-06
1.56771e-06
1.56792e-06
1.56785e-06
1.56767e-06
1.56724e-06
1.56686e-06
1.56673e-06
1.5669e-06
1.5673e-06
1.56772e-06
1.56784e-06
1.5677e-06
1.56739e-06
1.56686e-06
1.56644e-06
1.5663e-06
1.56648e-06
1.56693e-06
1.56745e-06
1.56771e-06
1.56763e-06
1.56764e-06
1.56728e-06
1.56673e-06
1.5663e-06
1.56616e-06
1.56634e-06
1.5668e-06
1.56734e-06
1.56765e-06
1.56772e-06
1.56742e-06
1.5669e-06
1.56648e-06
1.56634e-06
1.56652e-06
1.56696e-06
1.56747e-06
1.56773e-06
1.56786e-06
1.56771e-06
1.5673e-06
1.56693e-06
1.5668e-06
1.56696e-06
1.56735e-06
1.56775e-06
1.56785e-06
1.56792e-06
1.56772e-06
1.56745e-06
1.56734e-06
1.56747e-06
1.56775e-06
1.56792e-06
1.56784e-06
1.56771e-06
1.56765e-06
1.56773e-06
1.56785e-06
1.54291e-06
1.5425e-06
1.54224e-06
1.54077e-06
1.54069e-06
1.54069e-06
1.54071e-06
1.54215e-06
1.5423e-06
1.54224e-06
1.54034e-06
1.53779e-06
1.53779e-06
1.53779e-06
1.53779e-06
1.54032e-06
1.54079e-06
1.54077e-06
1.53779e-06
1.53773e-06
1.53776e-06
1.53776e-06
1.53773e-06
1.53779e-06
1.54066e-06
1.5424e-06
1.54291e-06
1.54069e-06
1.53779e-06
1.53776e-06
1.53781e-06
1.53781e-06
1.53776e-06
1.53779e-06
1.54056e-06
1.54214e-06
1.5425e-06
1.54069e-06
1.53779e-06
1.53776e-06
1.53781e-06
1.53781e-06
1.53776e-06
1.53779e-06
1.54053e-06
1.54097e-06
1.54071e-06
1.53779e-06
1.53773e-06
1.53776e-06
1.53776e-06
1.53773e-06
1.53779e-06
1.5406e-06
1.54225e-06
1.54214e-06
1.54031e-06
1.53779e-06
1.53779e-06
1.53779e-06
1.53779e-06
1.54014e-06
1.54078e-06
1.54243e-06
1.5423e-06
1.54078e-06
1.54066e-06
1.54056e-06
1.54052e-06
1.5406e-06
1.54078e-06
1.54248e-06
1.5424e-06
1.54214e-06
1.54097e-06
1.54224e-06
1.54244e-06
1.5264e-06
1.52626e-06
1.5262e-06
1.52458e-06
1.52449e-06
1.52446e-06
1.52453e-06
1.52607e-06
1.5263e-06
1.5262e-06
1.52415e-06
1.52137e-06
1.52137e-06
1.52137e-06
1.52137e-06
1.52413e-06
1.52471e-06
1.52458e-06
1.52137e-06
1.52135e-06
1.52135e-06
1.52135e-06
1.52135e-06
1.52137e-06
1.52455e-06
1.5263e-06
1.52639e-06
1.52449e-06
1.52137e-06
1.52135e-06
1.52135e-06
1.52135e-06
1.52135e-06
1.52137e-06
1.52444e-06
1.52602e-06
1.52625e-06
1.52446e-06
1.52137e-06
1.52135e-06
1.52135e-06
1.52135e-06
1.52135e-06
1.52137e-06
1.5244e-06
1.52481e-06
1.52453e-06
1.52137e-06
1.52134e-06
1.52135e-06
1.52135e-06
1.52134e-06
1.52137e-06
1.52449e-06
1.52618e-06
1.52607e-06
1.52413e-06
1.52137e-06
1.52137e-06
1.52137e-06
1.52137e-06
1.52402e-06
1.52467e-06
1.52635e-06
1.5263e-06
1.52471e-06
1.52455e-06
1.52444e-06
1.5244e-06
1.52449e-06
1.52466e-06
1.52628e-06
1.5263e-06
1.52602e-06
1.52481e-06
1.52618e-06
1.52635e-06
1.5101e-06
1.50996e-06
1.50989e-06
1.50824e-06
1.50815e-06
1.50811e-06
1.5082e-06
1.50975e-06
1.50999e-06
1.50989e-06
1.50777e-06
1.505e-06
1.50499e-06
1.50499e-06
1.505e-06
1.50777e-06
1.50837e-06
1.50824e-06
1.505e-06
1.50499e-06
1.50499e-06
1.50499e-06
1.50499e-06
1.505e-06
1.50824e-06
1.51e-06
1.5101e-06
1.50815e-06
1.50499e-06
1.50499e-06
1.50499e-06
1.50499e-06
1.50499e-06
1.50499e-06
1.50816e-06
1.50973e-06
1.50996e-06
1.50811e-06
1.50499e-06
1.50499e-06
1.50499e-06
1.50499e-06
1.50499e-06
1.50499e-06
1.50812e-06
1.50851e-06
1.5082e-06
1.505e-06
1.50499e-06
1.50499e-06
1.50499e-06
1.50499e-06
1.505e-06
1.5082e-06
1.50988e-06
1.50975e-06
1.50777e-06
1.505e-06
1.50499e-06
1.50499e-06
1.505e-06
1.50772e-06
1.50835e-06
1.51004e-06
1.50999e-06
1.50837e-06
1.50824e-06
1.50816e-06
1.50812e-06
1.5082e-06
1.50835e-06
1.51006e-06
1.51e-06
1.50972e-06
1.50851e-06
1.50988e-06
1.51004e-06
1.49375e-06
1.49361e-06
1.49353e-06
1.49188e-06
1.49179e-06
1.49175e-06
1.49184e-06
1.49339e-06
1.49364e-06
1.49353e-06
1.49141e-06
1.48863e-06
1.48863e-06
1.48863e-06
1.48863e-06
1.49141e-06
1.49203e-06
1.49188e-06
1.48863e-06
1.48863e-06
1.48863e-06
1.48863e-06
1.48863e-06
1.48863e-06
1.49189e-06
1.49365e-06
1.49375e-06
1.49179e-06
1.48863e-06
1.48863e-06
1.48863e-06
1.48863e-06
1.48863e-06
1.48863e-06
1.49182e-06
1.49338e-06
1.49361e-06
1.49175e-06
1.48863e-06
1.48863e-06
1.48863e-06
1.48863e-06
1.48863e-06
1.48863e-06
1.49178e-06
1.49217e-06
1.49184e-06
1.48863e-06
1.48863e-06
1.48863e-06
1.48863e-06
1.48863e-06
1.48863e-06
1.49185e-06
1.49354e-06
1.49339e-06
1.49141e-06
1.48863e-06
1.48863e-06
1.48863e-06
1.48863e-06
1.49138e-06
1.492e-06
1.49369e-06
1.49364e-06
1.49203e-06
1.49189e-06
1.49182e-06
1.49178e-06
1.49185e-06
1.492e-06
1.49372e-06
1.49365e-06
1.49338e-06
1.49217e-06
1.49354e-06
1.49369e-06
1.4774e-06
1.47725e-06
1.47718e-06
1.47552e-06
1.47543e-06
1.47539e-06
1.47548e-06
1.47704e-06
1.47728e-06
1.47718e-06
1.47505e-06
1.47227e-06
1.47227e-06
1.47227e-06
1.47227e-06
1.47505e-06
1.47567e-06
1.47552e-06
1.47227e-06
1.47227e-06
1.47227e-06
1.47227e-06
1.47227e-06
1.47227e-06
1.47554e-06
1.47729e-06
1.4774e-06
1.47543e-06
1.47227e-06
1.47227e-06
1.47227e-06
1.47227e-06
1.47227e-06
1.47227e-06
1.47546e-06
1.47703e-06
1.47726e-06
1.47539e-06
1.47227e-06
1.47227e-06
1.47227e-06
1.47227e-06
1.47227e-06
1.47227e-06
1.47543e-06
1.47582e-06
1.47549e-06
1.47227e-06
1.47227e-06
1.47227e-06
1.47227e-06
1.47227e-06
1.47227e-06
1.4755e-06
1.47718e-06
1.47704e-06
1.47505e-06
1.47227e-06
1.47227e-06
1.47227e-06
1.47227e-06
1.47502e-06
1.47565e-06
1.47733e-06
1.47728e-06
1.47567e-06
1.47554e-06
1.47546e-06
1.47543e-06
1.4755e-06
1.47565e-06
1.47736e-06
1.47729e-06
1.47703e-06
1.47582e-06
1.47718e-06
1.47733e-06
1.46104e-06
1.4609e-06
1.46082e-06
1.45917e-06
1.45907e-06
1.45903e-06
1.45913e-06
1.46068e-06
1.46093e-06
1.46082e-06
1.45869e-06
1.45591e-06
1.45591e-06
1.45591e-06
1.45591e-06
1.45869e-06
1.45931e-06
1.45917e-06
1.45591e-06
1.45591e-06
1.45591e-06
1.45591e-06
1.45591e-06
1.45591e-06
1.45918e-06
1.46093e-06
1.46104e-06
1.45907e-06
1.45591e-06
1.45591e-06
1.45591e-06
1.45591e-06
1.45591e-06
1.45591e-06
1.45911e-06
1.46067e-06
1.46091e-06
1.45903e-06
1.45591e-06
1.45591e-06
1.45591e-06
1.45591e-06
1.45591e-06
1.45591e-06
1.45907e-06
1.45946e-06
1.45913e-06
1.45591e-06
1.45591e-06
1.45591e-06
1.45591e-06
1.45591e-06
1.45591e-06
1.45914e-06
1.46083e-06
1.46068e-06
1.45869e-06
1.45591e-06
1.45591e-06
1.45591e-06
1.45591e-06
1.45867e-06
1.45929e-06
1.46097e-06
1.46093e-06
1.45931e-06
1.45918e-06
1.45911e-06
1.45907e-06
1.45914e-06
1.45929e-06
1.46099e-06
1.46093e-06
1.46067e-06
1.45946e-06
1.46083e-06
1.46097e-06
1.44468e-06
1.44454e-06
1.44446e-06
1.44281e-06
1.44271e-06
1.44268e-06
1.44277e-06
1.44432e-06
1.44457e-06
1.44446e-06
1.44233e-06
1.43956e-06
1.43956e-06
1.43956e-06
1.43956e-06
1.44233e-06
1.44296e-06
1.44281e-06
1.43956e-06
1.43956e-06
1.43956e-06
1.43956e-06
1.43956e-06
1.43956e-06
1.44282e-06
1.44458e-06
1.44468e-06
1.44271e-06
1.43956e-06
1.43956e-06
1.43956e-06
1.43956e-06
1.43956e-06
1.43956e-06
1.44275e-06
1.44431e-06
1.44454e-06
1.44268e-06
1.43956e-06
1.43956e-06
1.43956e-06
1.43956e-06
1.43956e-06
1.43956e-06
1.44271e-06
1.4431e-06
1.44277e-06
1.43956e-06
1.43956e-06
1.43956e-06
1.43956e-06
1.43956e-06
1.43956e-06
1.44279e-06
1.44447e-06
1.44432e-06
1.44233e-06
1.43956e-06
1.43956e-06
1.43956e-06
1.43956e-06
1.44231e-06
1.44293e-06
1.44462e-06
1.44457e-06
1.44296e-06
1.44282e-06
1.44275e-06
1.44271e-06
1.44279e-06
1.44293e-06
1.44464e-06
1.44458e-06
1.44431e-06
1.4431e-06
1.44447e-06
1.44462e-06
1.42832e-06
1.42818e-06
1.4281e-06
1.42645e-06
1.42636e-06
1.42632e-06
1.42641e-06
1.42796e-06
1.42821e-06
1.4281e-06
1.42598e-06
1.4232e-06
1.4232e-06
1.4232e-06
1.4232e-06
1.42597e-06
1.4266e-06
1.42645e-06
1.4232e-06
1.4232e-06
1.4232e-06
1.4232e-06
1.4232e-06
1.4232e-06
1.42647e-06
1.42822e-06
1.42832e-06
1.42636e-06
1.4232e-06
1.4232e-06
1.4232e-06
1.4232e-06
1.4232e-06
1.4232e-06
1.42639e-06
1.42795e-06
1.42818e-06
1.42632e-06
1.4232e-06
1.4232e-06
1.4232e-06
1.4232e-06
1.4232e-06
1.4232e-06
1.42636e-06
1.42674e-06
1.42641e-06
1.4232e-06
1.4232e-06
1.4232e-06
1.4232e-06
1.4232e-06
1.4232e-06
1.42643e-06
1.42811e-06
1.42796e-06
1.42597e-06
1.4232e-06
1.4232e-06
1.4232e-06
1.4232e-06
1.42595e-06
1.42657e-06
1.42826e-06
1.42821e-06
1.4266e-06
1.42647e-06
1.42639e-06
1.42636e-06
1.42643e-06
1.42657e-06
1.42828e-06
1.42822e-06
1.42795e-06
1.42674e-06
1.42811e-06
1.42826e-06
1.41197e-06
1.41183e-06
1.41174e-06
1.41009e-06
1.41e-06
1.40996e-06
1.41005e-06
1.41161e-06
1.41185e-06
1.41175e-06
1.40962e-06
1.40684e-06
1.40684e-06
1.40684e-06
1.40684e-06
1.40962e-06
1.41024e-06
1.41009e-06
1.40684e-06
1.40684e-06
1.40684e-06
1.40684e-06
1.40684e-06
1.40684e-06
1.41011e-06
1.41186e-06
1.41196e-06
1.41e-06
1.40684e-06
1.40684e-06
1.40684e-06
1.40684e-06
1.40684e-06
1.40684e-06
1.41003e-06
1.4116e-06
1.41182e-06
1.40996e-06
1.40684e-06
1.40684e-06
1.40684e-06
1.40684e-06
1.40684e-06
1.40684e-06
1.41e-06
1.41039e-06
1.41005e-06
1.40684e-06
1.40684e-06
1.40684e-06
1.40684e-06
1.40684e-06
1.40684e-06
1.41007e-06
1.41175e-06
1.41161e-06
1.40962e-06
1.40684e-06
1.40684e-06
1.40684e-06
1.40684e-06
1.40959e-06
1.41022e-06
1.4119e-06
1.41185e-06
1.41024e-06
1.41011e-06
1.41003e-06
1.41e-06
1.41007e-06
1.41022e-06
1.41192e-06
1.41186e-06
1.4116e-06
1.41039e-06
1.41175e-06
1.4119e-06
1.39561e-06
1.39547e-06
1.39539e-06
1.39374e-06
1.39364e-06
1.3936e-06
1.3937e-06
1.39525e-06
1.39549e-06
1.39539e-06
1.39326e-06
1.39048e-06
1.39048e-06
1.39048e-06
1.39048e-06
1.39326e-06
1.39388e-06
1.39374e-06
1.39048e-06
1.39048e-06
1.39048e-06
1.39048e-06
1.39048e-06
1.39048e-06
1.39375e-06
1.3955e-06
1.39561e-06
1.39364e-06
1.39048e-06
1.39048e-06
1.39048e-06
1.39048e-06
1.39048e-06
1.39048e-06
1.39368e-06
1.39524e-06
1.39547e-06
1.3936e-06
1.39048e-06
1.39048e-06
1.39048e-06
1.39048e-06
1.39048e-06
1.39048e-06
1.39364e-06
1.39403e-06
1.3937e-06
1.39048e-06
1.39048e-06
1.39048e-06
1.39048e-06
1.39048e-06
1.39048e-06
1.39371e-06
1.3954e-06
1.39525e-06
1.39326e-06
1.39048e-06
1.39048e-06
1.39048e-06
1.39048e-06
1.39324e-06
1.39386e-06
1.39554e-06
1.39549e-06
1.39388e-06
1.39375e-06
1.39368e-06
1.39364e-06
1.39371e-06
1.39386e-06
1.39557e-06
1.3955e-06
1.39524e-06
1.39403e-06
1.3954e-06
1.39554e-06
1.37925e-06
1.37911e-06
1.37903e-06
1.37738e-06
1.37728e-06
1.37725e-06
1.37734e-06
1.37889e-06
1.37914e-06
1.37903e-06
1.3769e-06
1.37412e-06
1.37412e-06
1.37412e-06
1.37412e-06
1.3769e-06
1.37753e-06
1.37738e-06
1.37412e-06
1.37413e-06
1.37412e-06
1.37412e-06
1.37413e-06
1.37412e-06
1.37739e-06
1.37915e-06
1.37925e-06
1.37728e-06
1.37412e-06
1.37412e-06
1.37412e-06
1.37412e-06
1.37412e-06
1.37412e-06
1.37732e-06
1.37888e-06
1.37911e-06
1.37725e-06
1.37412e-06
1.37413e-06
1.37412e-06
1.37412e-06
1.37412e-06
1.37412e-06
1.37728e-06
1.37767e-06
1.37734e-06
1.37412e-06
1.37413e-06
1.37412e-06
1.37412e-06
1.37412e-06
1.37412e-06
1.37736e-06
1.37904e-06
1.37889e-06
1.3769e-06
1.37412e-06
1.37412e-06
1.37412e-06
1.37412e-06
1.37688e-06
1.3775e-06
1.37919e-06
1.37914e-06
1.37753e-06
1.37739e-06
1.37732e-06
1.37728e-06
1.37736e-06
1.3775e-06
1.37921e-06
1.37915e-06
1.37888e-06
1.37767e-06
1.37904e-06
1.37919e-06
1.36289e-06
1.36275e-06
1.36267e-06
1.36102e-06
1.36093e-06
1.36089e-06
1.36098e-06
1.36253e-06
1.36278e-06
1.36267e-06
1.36055e-06
1.35777e-06
1.35777e-06
1.35777e-06
1.35777e-06
1.36054e-06
1.36117e-06
1.36102e-06
1.35777e-06
1.35777e-06
1.35777e-06
1.35777e-06
1.35777e-06
1.35777e-06
1.36104e-06
1.36279e-06
1.36289e-06
1.36093e-06
1.35777e-06
1.35777e-06
1.35777e-06
1.35777e-06
1.35777e-06
1.35777e-06
1.36096e-06
1.36252e-06
1.36275e-06
1.36089e-06
1.35777e-06
1.35777e-06
1.35777e-06
1.35777e-06
1.35777e-06
1.35777e-06
1.36093e-06
1.36131e-06
1.36098e-06
1.35777e-06
1.35777e-06
1.35777e-06
1.35777e-06
1.35777e-06
1.35777e-06
1.361e-06
1.36268e-06
1.36253e-06
1.36054e-06
1.35777e-06
1.35777e-06
1.35777e-06
1.35777e-06
1.36052e-06
1.36114e-06
1.36283e-06
1.36278e-06
1.36117e-06
1.36104e-06
1.36096e-06
1.36093e-06
1.361e-06
1.36114e-06
1.36285e-06
1.36279e-06
1.36252e-06
1.36131e-06
1.36268e-06
1.36283e-06
1.34654e-06
1.3464e-06
1.34631e-06
1.34466e-06
1.34457e-06
1.34453e-06
1.34462e-06
1.34618e-06
1.34642e-06
1.34632e-06
1.34419e-06
1.34141e-06
1.34141e-06
1.34141e-06
1.34141e-06
1.34419e-06
1.34481e-06
1.34466e-06
1.34141e-06
1.34141e-06
1.34141e-06
1.34141e-06
1.34141e-06
1.34141e-06
1.34468e-06
1.34643e-06
1.34654e-06
1.34457e-06
1.34141e-06
1.34141e-06
1.34141e-06
1.34141e-06
1.34141e-06
1.34141e-06
1.3446e-06
1.34617e-06
1.3464e-06
1.34453e-06
1.34141e-06
1.34141e-06
1.34141e-06
1.34141e-06
1.34141e-06
1.34141e-06
1.34457e-06
1.34496e-06
1.34462e-06
1.34141e-06
1.34141e-06
1.34141e-06
1.34141e-06
1.34141e-06
1.34141e-06
1.34464e-06
1.34632e-06
1.34618e-06
1.34419e-06
1.34141e-06
1.34141e-06
1.34141e-06
1.34141e-06
1.34416e-06
1.34479e-06
1.34647e-06
1.34642e-06
1.34481e-06
1.34468e-06
1.3446e-06
1.34457e-06
1.34464e-06
1.34479e-06
1.34649e-06
1.34643e-06
1.34617e-06
1.34496e-06
1.34632e-06
1.34647e-06
1.33018e-06
1.33004e-06
1.32996e-06
1.32831e-06
1.32821e-06
1.32817e-06
1.32827e-06
1.32982e-06
1.33006e-06
1.32996e-06
1.32783e-06
1.32505e-06
1.32505e-06
1.32505e-06
1.32505e-06
1.32783e-06
1.32845e-06
1.32831e-06
1.32505e-06
1.32505e-06
1.32505e-06
1.32505e-06
1.32505e-06
1.32505e-06
1.32832e-06
1.33007e-06
1.33018e-06
1.32821e-06
1.32505e-06
1.32505e-06
1.32505e-06
1.32505e-06
1.32505e-06
1.32505e-06
1.32825e-06
1.32981e-06
1.33004e-06
1.32817e-06
1.32505e-06
1.32505e-06
1.32505e-06
1.32505e-06
1.32505e-06
1.32505e-06
1.32821e-06
1.3286e-06
1.32826e-06
1.32505e-06
1.32505e-06
1.32505e-06
1.32505e-06
1.32505e-06
1.32505e-06
1.32828e-06
1.32997e-06
1.32982e-06
1.32783e-06
1.32505e-06
1.32505e-06
1.32505e-06
1.32505e-06
1.32781e-06
1.32843e-06
1.33011e-06
1.33006e-06
1.32845e-06
1.32832e-06
1.32825e-06
1.32821e-06
1.32828e-06
1.32843e-06
1.33014e-06
1.33007e-06
1.32981e-06
1.3286e-06
1.32997e-06
1.33011e-06
1.31382e-06
1.31368e-06
1.3136e-06
1.31195e-06
1.31185e-06
1.31181e-06
1.31191e-06
1.31346e-06
1.31371e-06
1.3136e-06
1.31147e-06
1.30869e-06
1.30869e-06
1.30869e-06
1.30869e-06
1.31147e-06
1.3121e-06
1.31195e-06
1.30869e-06
1.30869e-06
1.30869e-06
1.30869e-06
1.30869e-06
1.30869e-06
1.31196e-06
1.31372e-06
1.31382e-06
1.31185e-06
1.30869e-06
1.30869e-06
1.30869e-06
1.30869e-06
1.30869e-06
1.30869e-06
1.31189e-06
1.31345e-06
1.31368e-06
1.31182e-06
1.30869e-06
1.30869e-06
1.30869e-06
1.30869e-06
1.30869e-06
1.30869e-06
1.31185e-06
1.31224e-06
1.31191e-06
1.30869e-06
1.30869e-06
1.30869e-06
1.30869e-06
1.30869e-06
1.30869e-06
1.31192e-06
1.31361e-06
1.31346e-06
1.31147e-06
1.30869e-06
1.30869e-06
1.30869e-06
1.30869e-06
1.31145e-06
1.31207e-06
1.31376e-06
1.31371e-06
1.3121e-06
1.31196e-06
1.31189e-06
1.31185e-06
1.31193e-06
1.31207e-06
1.31378e-06
1.31372e-06
1.31345e-06
1.31224e-06
1.31361e-06
1.31376e-06
1.29746e-06
1.29732e-06
1.29724e-06
1.29559e-06
1.2955e-06
1.29546e-06
1.29555e-06
1.2971e-06
1.29735e-06
1.29724e-06
1.29512e-06
1.29234e-06
1.29234e-06
1.29234e-06
1.29234e-06
1.29511e-06
1.29574e-06
1.29559e-06
1.29234e-06
1.29234e-06
1.29234e-06
1.29234e-06
1.29234e-06
1.29234e-06
1.29561e-06
1.29736e-06
1.29746e-06
1.2955e-06
1.29234e-06
1.29234e-06
1.29234e-06
1.29234e-06
1.29234e-06
1.29234e-06
1.29553e-06
1.29709e-06
1.29732e-06
1.29546e-06
1.29234e-06
1.29234e-06
1.29234e-06
1.29234e-06
1.29234e-06
1.29234e-06
1.2955e-06
1.29588e-06
1.29555e-06
1.29234e-06
1.29234e-06
1.29234e-06
1.29234e-06
1.29234e-06
1.29234e-06
1.29557e-06
1.29725e-06
1.2971e-06
1.29511e-06
1.29234e-06
1.29234e-06
1.29234e-06
1.29234e-06
1.29509e-06
1.29571e-06
1.2974e-06
1.29735e-06
1.29574e-06
1.29561e-06
1.29553e-06
1.2955e-06
1.29557e-06
1.29571e-06
1.29742e-06
1.29736e-06
1.29709e-06
1.29588e-06
1.29725e-06
1.2974e-06
1.28111e-06
1.28096e-06
1.28088e-06
1.27923e-06
1.27914e-06
1.2791e-06
1.27919e-06
1.28075e-06
1.28099e-06
1.28089e-06
1.27876e-06
1.27598e-06
1.27598e-06
1.27598e-06
1.27598e-06
1.27876e-06
1.27938e-06
1.27923e-06
1.27598e-06
1.27598e-06
1.27598e-06
1.27598e-06
1.27598e-06
1.27598e-06
1.27925e-06
1.281e-06
1.28111e-06
1.27914e-06
1.27598e-06
1.27598e-06
1.27598e-06
1.27598e-06
1.27598e-06
1.27598e-06
1.27917e-06
1.28074e-06
1.28097e-06
1.2791e-06
1.27598e-06
1.27598e-06
1.27598e-06
1.27598e-06
1.27598e-06
1.27598e-06
1.27914e-06
1.27953e-06
1.27919e-06
1.27598e-06
1.27598e-06
1.27598e-06
1.27598e-06
1.27598e-06
1.27598e-06
1.27921e-06
1.28089e-06
1.28075e-06
1.27876e-06
1.27598e-06
1.27598e-06
1.27598e-06
1.27598e-06
1.27873e-06
1.27936e-06
1.28104e-06
1.28099e-06
1.27938e-06
1.27925e-06
1.27917e-06
1.27914e-06
1.27921e-06
1.27936e-06
1.28106e-06
1.281e-06
1.28074e-06
1.27952e-06
1.28089e-06
1.28104e-06
1.26475e-06
1.26461e-06
1.26453e-06
1.26288e-06
1.26278e-06
1.26274e-06
1.26284e-06
1.26439e-06
1.26463e-06
1.26453e-06
1.2624e-06
1.25962e-06
1.25962e-06
1.25962e-06
1.25962e-06
1.2624e-06
1.26302e-06
1.26288e-06
1.25962e-06
1.25962e-06
1.25962e-06
1.25962e-06
1.25962e-06
1.25962e-06
1.26289e-06
1.26464e-06
1.26475e-06
1.26278e-06
1.25962e-06
1.25962e-06
1.25962e-06
1.25962e-06
1.25962e-06
1.25962e-06
1.26282e-06
1.26438e-06
1.26461e-06
1.26274e-06
1.25962e-06
1.25962e-06
1.25962e-06
1.25962e-06
1.25962e-06
1.25962e-06
1.26278e-06
1.26317e-06
1.26284e-06
1.25962e-06
1.25962e-06
1.25962e-06
1.25962e-06
1.25962e-06
1.25962e-06
1.26285e-06
1.26453e-06
1.26439e-06
1.2624e-06
1.25962e-06
1.25962e-06
1.25962e-06
1.25962e-06
1.26238e-06
1.263e-06
1.26468e-06
1.26463e-06
1.26302e-06
1.26289e-06
1.26282e-06
1.26278e-06
1.26285e-06
1.263e-06
1.2647e-06
1.26464e-06
1.26438e-06
1.26317e-06
1.26454e-06
1.26468e-06
1.24839e-06
1.24825e-06
1.24817e-06
1.24652e-06
1.24642e-06
1.24638e-06
1.24648e-06
1.24803e-06
1.24828e-06
1.24817e-06
1.24604e-06
1.24326e-06
1.24326e-06
1.24326e-06
1.24326e-06
1.24604e-06
1.24667e-06
1.24652e-06
1.24326e-06
1.24326e-06
1.24326e-06
1.24326e-06
1.24326e-06
1.24326e-06
1.24653e-06
1.24829e-06
1.24839e-06
1.24642e-06
1.24326e-06
1.24326e-06
1.24326e-06
1.24326e-06
1.24326e-06
1.24326e-06
1.24646e-06
1.24802e-06
1.24825e-06
1.24638e-06
1.24326e-06
1.24326e-06
1.24326e-06
1.24326e-06
1.24326e-06
1.24326e-06
1.24642e-06
1.24681e-06
1.24648e-06
1.24326e-06
1.24326e-06
1.24326e-06
1.24326e-06
1.24326e-06
1.24326e-06
1.24649e-06
1.24818e-06
1.24803e-06
1.24604e-06
1.24326e-06
1.24326e-06
1.24326e-06
1.24326e-06
1.24602e-06
1.24664e-06
1.24833e-06
1.24828e-06
1.24667e-06
1.24653e-06
1.24646e-06
1.24642e-06
1.2465e-06
1.24664e-06
1.24834e-06
1.24829e-06
1.24802e-06
1.24681e-06
1.24818e-06
1.24833e-06
1.23203e-06
1.23189e-06
1.23181e-06
1.23016e-06
1.23007e-06
1.23003e-06
1.23012e-06
1.23167e-06
1.23192e-06
1.23181e-06
1.22969e-06
1.22691e-06
1.22691e-06
1.22691e-06
1.22691e-06
1.22968e-06
1.23031e-06
1.23016e-06
1.22691e-06
1.22691e-06
1.22691e-06
1.22691e-06
1.22691e-06
1.22691e-06
1.23018e-06
1.23193e-06
1.23203e-06
1.23007e-06
1.22691e-06
1.22691e-06
1.22691e-06
1.22691e-06
1.22691e-06
1.22691e-06
1.2301e-06
1.23166e-06
1.23189e-06
1.23003e-06
1.22691e-06
1.22691e-06
1.22691e-06
1.22691e-06
1.22691e-06
1.22691e-06
1.23007e-06
1.23045e-06
1.23012e-06
1.22691e-06
1.22691e-06
1.22691e-06
1.22691e-06
1.22691e-06
1.22691e-06
1.23014e-06
1.23182e-06
1.23167e-06
1.22968e-06
1.22691e-06
1.22691e-06
1.22691e-06
1.22691e-06
1.22966e-06
1.23028e-06
1.23197e-06
1.23192e-06
1.23031e-06
1.23018e-06
1.2301e-06
1.23007e-06
1.23014e-06
1.23028e-06
1.23199e-06
1.23193e-06
1.23166e-06
1.23046e-06
1.23182e-06
1.23197e-06
1.21568e-06
1.21553e-06
1.21545e-06
1.2138e-06
1.21371e-06
1.21367e-06
1.21376e-06
1.21532e-06
1.21556e-06
1.21545e-06
1.21333e-06
1.21055e-06
1.21055e-06
1.21055e-06
1.21055e-06
1.21333e-06
1.21395e-06
1.2138e-06
1.21055e-06
1.21055e-06
1.21055e-06
1.21055e-06
1.21055e-06
1.21055e-06
1.21382e-06
1.21557e-06
1.21568e-06
1.21371e-06
1.21055e-06
1.21055e-06
1.21055e-06
1.21055e-06
1.21055e-06
1.21055e-06
1.21374e-06
1.21531e-06
1.21553e-06
1.21367e-06
1.21055e-06
1.21055e-06
1.21055e-06
1.21055e-06
1.21055e-06
1.21055e-06
1.21371e-06
1.2141e-06
1.21376e-06
1.21055e-06
1.21055e-06
1.21055e-06
1.21055e-06
1.21055e-06
1.21055e-06
1.21378e-06
1.21546e-06
1.21532e-06
1.21333e-06
1.21055e-06
1.21055e-06
1.21055e-06
1.21055e-06
1.2133e-06
1.21393e-06
1.21561e-06
1.21556e-06
1.21395e-06
1.21382e-06
1.21374e-06
1.21371e-06
1.21378e-06
1.21393e-06
1.21563e-06
1.21557e-06
1.21531e-06
1.21409e-06
1.21546e-06
1.21561e-06
1.19932e-06
1.19918e-06
1.1991e-06
1.19745e-06
1.19735e-06
1.19731e-06
1.19741e-06
1.19896e-06
1.1992e-06
1.1991e-06
1.19697e-06
1.19419e-06
1.19419e-06
1.19419e-06
1.19419e-06
1.19697e-06
1.19759e-06
1.19745e-06
1.19419e-06
1.19419e-06
1.19419e-06
1.19419e-06
1.19419e-06
1.19419e-06
1.19746e-06
1.19921e-06
1.19932e-06
1.19735e-06
1.19419e-06
1.19419e-06
1.19419e-06
1.19419e-06
1.19419e-06
1.19419e-06
1.19739e-06
1.19895e-06
1.19918e-06
1.19731e-06
1.19419e-06
1.19419e-06
1.19419e-06
1.19419e-06
1.19419e-06
1.19419e-06
1.19735e-06
1.19774e-06
1.1974e-06
1.19419e-06
1.19419e-06
1.19419e-06
1.19419e-06
1.19419e-06
1.19419e-06
1.19742e-06
1.1991e-06
1.19896e-06
1.19697e-06
1.19419e-06
1.19419e-06
1.19419e-06
1.19419e-06
1.19695e-06
1.19757e-06
1.19925e-06
1.1992e-06
1.19759e-06
1.19746e-06
1.19739e-06
1.19735e-06
1.19742e-06
1.19757e-06
1.19927e-06
1.19921e-06
1.19895e-06
1.19774e-06
1.19911e-06
1.19925e-06
1.18296e-06
1.18282e-06
1.18274e-06
1.18109e-06
1.18099e-06
1.18095e-06
1.18105e-06
1.1826e-06
1.18285e-06
1.18274e-06
1.18061e-06
1.17783e-06
1.17783e-06
1.17783e-06
1.17783e-06
1.18061e-06
1.18124e-06
1.18109e-06
1.17783e-06
1.17783e-06
1.17783e-06
1.17783e-06
1.17783e-06
1.17783e-06
1.1811e-06
1.18286e-06
1.18296e-06
1.18099e-06
1.17783e-06
1.17783e-06
1.17783e-06
1.17783e-06
1.17783e-06
1.17783e-06
1.18103e-06
1.18259e-06
1.18282e-06
1.18095e-06
1.17783e-06
1.17783e-06
1.17783e-06
1.17783e-06
1.17783e-06
1.17783e-06
1.18099e-06
1.18138e-06
1.18105e-06
1.17783e-06
1.17783e-06
1.17783e-06
1.17783e-06
1.17783e-06
1.17783e-06
1.18106e-06
1.18275e-06
1.1826e-06
1.18061e-06
1.17783e-06
1.17783e-06
1.17783e-06
1.17783e-06
1.18059e-06
1.18121e-06
1.1829e-06
1.18285e-06
1.18123e-06
1.1811e-06
1.18103e-06
1.18099e-06
1.18107e-06
1.18121e-06
1.18291e-06
1.18286e-06
1.18259e-06
1.18138e-06
1.18275e-06
1.1829e-06
1.1666e-06
1.16646e-06
1.16638e-06
1.16473e-06
1.16464e-06
1.1646e-06
1.16469e-06
1.16624e-06
1.16649e-06
1.16638e-06
1.16426e-06
1.16148e-06
1.16148e-06
1.16148e-06
1.16148e-06
1.16425e-06
1.16488e-06
1.16473e-06
1.16148e-06
1.16148e-06
1.16148e-06
1.16148e-06
1.16148e-06
1.16148e-06
1.16475e-06
1.1665e-06
1.1666e-06
1.16464e-06
1.16148e-06
1.16148e-06
1.16148e-06
1.16148e-06
1.16148e-06
1.16148e-06
1.16467e-06
1.16623e-06
1.16646e-06
1.1646e-06
1.16148e-06
1.16148e-06
1.16148e-06
1.16148e-06
1.16148e-06
1.16148e-06
1.16464e-06
1.16502e-06
1.16469e-06
1.16148e-06
1.16148e-06
1.16148e-06
1.16148e-06
1.16148e-06
1.16148e-06
1.16471e-06
1.16639e-06
1.16624e-06
1.16425e-06
1.16148e-06
1.16148e-06
1.16148e-06
1.16148e-06
1.16423e-06
1.16485e-06
1.16654e-06
1.16649e-06
1.16488e-06
1.16475e-06
1.16467e-06
1.16464e-06
1.16471e-06
1.16485e-06
1.16656e-06
1.1665e-06
1.16623e-06
1.16503e-06
1.16639e-06
1.16654e-06
1.15025e-06
1.1501e-06
1.15002e-06
1.14837e-06
1.14828e-06
1.14824e-06
1.14833e-06
1.14989e-06
1.15013e-06
1.15002e-06
1.1479e-06
1.14512e-06
1.14512e-06
1.14512e-06
1.14512e-06
1.1479e-06
1.14852e-06
1.14837e-06
1.14512e-06
1.14512e-06
1.14512e-06
1.14512e-06
1.14512e-06
1.14512e-06
1.14839e-06
1.15014e-06
1.15025e-06
1.14828e-06
1.14512e-06
1.14512e-06
1.14512e-06
1.14512e-06
1.14512e-06
1.14512e-06
1.14831e-06
1.14988e-06
1.1501e-06
1.14824e-06
1.14512e-06
1.14512e-06
1.14512e-06
1.14512e-06
1.14512e-06
1.14512e-06
1.14828e-06
1.14867e-06
1.14833e-06
1.14512e-06
1.14512e-06
1.14512e-06
1.14512e-06
1.14512e-06
1.14512e-06
1.14835e-06
1.15003e-06
1.14989e-06
1.1479e-06
1.14512e-06
1.14512e-06
1.14512e-06
1.14512e-06
1.14787e-06
1.1485e-06
1.15018e-06
1.15013e-06
1.14852e-06
1.14839e-06
1.14831e-06
1.14828e-06
1.14835e-06
1.1485e-06
1.1502e-06
1.15014e-06
1.14987e-06
1.14867e-06
1.15003e-06
1.15018e-06
1.13389e-06
1.13375e-06
1.13367e-06
1.13202e-06
1.13192e-06
1.13188e-06
1.13197e-06
1.13353e-06
1.13377e-06
1.13367e-06
1.13154e-06
1.12876e-06
1.12876e-06
1.12876e-06
1.12876e-06
1.13154e-06
1.13216e-06
1.13202e-06
1.12876e-06
1.12876e-06
1.12876e-06
1.12876e-06
1.12876e-06
1.12876e-06
1.13203e-06
1.13378e-06
1.13389e-06
1.13192e-06
1.12876e-06
1.12876e-06
1.12876e-06
1.12876e-06
1.12876e-06
1.12876e-06
1.13196e-06
1.13352e-06
1.13375e-06
1.13188e-06
1.12876e-06
1.12876e-06
1.12876e-06
1.12876e-06
1.12876e-06
1.12876e-06
1.13192e-06
1.13231e-06
1.13197e-06
1.12876e-06
1.12876e-06
1.12876e-06
1.12876e-06
1.12876e-06
1.12876e-06
1.13199e-06
1.13367e-06
1.13353e-06
1.13154e-06
1.12876e-06
1.12876e-06
1.12876e-06
1.12876e-06
1.13152e-06
1.13214e-06
1.13382e-06
1.13377e-06
1.13216e-06
1.13203e-06
1.13196e-06
1.13192e-06
1.13199e-06
1.13214e-06
1.13384e-06
1.13378e-06
1.13352e-06
1.13231e-06
1.13367e-06
1.13382e-06
1.11753e-06
1.11739e-06
1.11731e-06
1.11566e-06
1.11556e-06
1.11552e-06
1.11562e-06
1.11717e-06
1.11742e-06
1.11731e-06
1.11518e-06
1.1124e-06
1.1124e-06
1.1124e-06
1.1124e-06
1.11518e-06
1.11581e-06
1.11566e-06
1.1124e-06
1.1124e-06
1.1124e-06
1.1124e-06
1.1124e-06
1.1124e-06
1.11567e-06
1.11743e-06
1.11753e-06
1.11556e-06
1.1124e-06
1.1124e-06
1.1124e-06
1.1124e-06
1.1124e-06
1.1124e-06
1.1156e-06
1.11716e-06
1.11739e-06
1.11553e-06
1.1124e-06
1.1124e-06
1.1124e-06
1.1124e-06
1.1124e-06
1.1124e-06
1.11556e-06
1.11595e-06
1.11562e-06
1.1124e-06
1.1124e-06
1.1124e-06
1.1124e-06
1.1124e-06
1.1124e-06
1.11563e-06
1.11732e-06
1.11717e-06
1.11518e-06
1.1124e-06
1.1124e-06
1.1124e-06
1.1124e-06
1.11516e-06
1.11578e-06
1.11747e-06
1.11742e-06
1.1158e-06
1.11567e-06
1.1156e-06
1.11556e-06
1.11563e-06
1.11578e-06
1.11749e-06
1.11743e-06
1.11716e-06
1.11595e-06
1.11732e-06
1.11747e-06
1.10117e-06
1.10103e-06
1.10095e-06
1.0993e-06
1.09921e-06
1.09917e-06
1.09926e-06
1.10081e-06
1.10106e-06
1.10095e-06
1.09883e-06
1.09605e-06
1.09605e-06
1.09605e-06
1.09605e-06
1.09882e-06
1.09945e-06
1.0993e-06
1.09605e-06
1.09605e-06
1.09605e-06
1.09605e-06
1.09605e-06
1.09605e-06
1.09932e-06
1.10107e-06
1.10117e-06
1.09921e-06
1.09605e-06
1.09605e-06
1.09605e-06
1.09605e-06
1.09605e-06
1.09605e-06
1.09924e-06
1.1008e-06
1.10103e-06
1.09917e-06
1.09605e-06
1.09605e-06
1.09605e-06
1.09605e-06
1.09605e-06
1.09605e-06
1.0992e-06
1.09959e-06
1.09926e-06
1.09605e-06
1.09605e-06
1.09605e-06
1.09605e-06
1.09605e-06
1.09605e-06
1.09928e-06
1.10096e-06
1.10081e-06
1.09882e-06
1.09605e-06
1.09605e-06
1.09605e-06
1.09605e-06
1.0988e-06
1.09942e-06
1.10111e-06
1.10106e-06
1.09945e-06
1.09932e-06
1.09924e-06
1.0992e-06
1.09928e-06
1.09942e-06
1.10113e-06
1.10107e-06
1.1008e-06
1.09959e-06
1.10096e-06
1.10111e-06
1.08481e-06
1.08467e-06
1.08459e-06
1.08294e-06
1.08285e-06
1.08281e-06
1.0829e-06
1.08446e-06
1.0847e-06
1.08459e-06
1.08247e-06
1.07969e-06
1.07969e-06
1.07969e-06
1.07969e-06
1.08247e-06
1.08309e-06
1.08294e-06
1.07969e-06
1.07969e-06
1.07969e-06
1.07969e-06
1.07969e-06
1.07969e-06
1.08296e-06
1.08471e-06
1.08482e-06
1.08285e-06
1.07969e-06
1.07969e-06
1.07969e-06
1.07969e-06
1.07969e-06
1.07969e-06
1.08288e-06
1.08444e-06
1.08467e-06
1.08281e-06
1.07969e-06
1.07969e-06
1.07969e-06
1.07969e-06
1.07969e-06
1.07969e-06
1.08285e-06
1.08324e-06
1.0829e-06
1.07969e-06
1.07969e-06
1.07969e-06
1.07969e-06
1.07969e-06
1.07969e-06
1.08292e-06
1.0846e-06
1.08446e-06
1.08247e-06
1.07969e-06
1.07969e-06
1.07969e-06
1.07969e-06
1.08244e-06
1.08307e-06
1.08475e-06
1.0847e-06
1.08309e-06
1.08296e-06
1.08288e-06
1.08285e-06
1.08292e-06
1.08307e-06
1.08477e-06
1.08471e-06
1.08445e-06
1.08324e-06
1.0846e-06
1.08475e-06
1.06846e-06
1.06832e-06
1.06824e-06
1.06659e-06
1.06649e-06
1.06645e-06
1.06654e-06
1.0681e-06
1.06834e-06
1.06824e-06
1.06611e-06
1.06333e-06
1.06333e-06
1.06333e-06
1.06333e-06
1.06611e-06
1.06673e-06
1.06659e-06
1.06333e-06
1.06333e-06
1.06333e-06
1.06333e-06
1.06333e-06
1.06333e-06
1.0666e-06
1.06835e-06
1.06846e-06
1.06649e-06
1.06333e-06
1.06333e-06
1.06333e-06
1.06333e-06
1.06333e-06
1.06333e-06
1.06653e-06
1.06809e-06
1.06832e-06
1.06645e-06
1.06333e-06
1.06333e-06
1.06333e-06
1.06333e-06
1.06333e-06
1.06333e-06
1.06649e-06
1.06688e-06
1.06654e-06
1.06333e-06
1.06333e-06
1.06333e-06
1.06333e-06
1.06333e-06
1.06333e-06
1.06656e-06
1.06824e-06
1.0681e-06
1.06611e-06
1.06333e-06
1.06333e-06
1.06333e-06
1.06333e-06
1.06609e-06
1.06671e-06
1.06839e-06
1.06834e-06
1.06673e-06
1.0666e-06
1.06653e-06
1.06649e-06
1.06656e-06
1.06671e-06
1.06841e-06
1.06835e-06
1.06809e-06
1.06688e-06
1.06824e-06
1.06839e-06
1.0521e-06
1.05196e-06
1.05188e-06
1.05023e-06
1.05013e-06
1.05009e-06
1.05019e-06
1.05174e-06
1.05199e-06
1.05188e-06
1.04975e-06
1.04697e-06
1.04697e-06
1.04697e-06
1.04697e-06
1.04975e-06
1.05038e-06
1.05023e-06
1.04697e-06
1.04697e-06
1.04697e-06
1.04697e-06
1.04697e-06
1.04697e-06
1.05024e-06
1.052e-06
1.0521e-06
1.05013e-06
1.04697e-06
1.04697e-06
1.04697e-06
1.04697e-06
1.04697e-06
1.04697e-06
1.05017e-06
1.05173e-06
1.05196e-06
1.05009e-06
1.04697e-06
1.04697e-06
1.04697e-06
1.04697e-06
1.04697e-06
1.04697e-06
1.05013e-06
1.05052e-06
1.05019e-06
1.04697e-06
1.04697e-06
1.04697e-06
1.04697e-06
1.04697e-06
1.04697e-06
1.0502e-06
1.05189e-06
1.05174e-06
1.04975e-06
1.04697e-06
1.04697e-06
1.04697e-06
1.04697e-06
1.04973e-06
1.05035e-06
1.05204e-06
1.05199e-06
1.05037e-06
1.05024e-06