/*--------------------------------*- C++ -*----------------------------------*\
| =========                 |                                                 |
| \\      /  F ield         | OpenFOAM: The Open Source CFD Toolbox           |
|  \\    /   O peration     | Version:  v2012                                 |
|   \\  /    A nd           | Website:  www.openfoam.com                      |
|    \\/     M anipulation  |                                                 |
\*---------------------------------------------------------------------------*/
FoamFile
{
    version     2.0;
    format      ascii;
    class       volScalarField;
    location    "4";
    object      p;
}
// * * * * * * * * * * * * * * * * * * * * * * * * * * * * * * * * * * * * * //

dimensions      [0 2 -2 0 0 0 0];


internalField   nonuniform List<scalar> 
244288
(
1.6699e-06
1.67022e-06
1.6702e-06
1.66999e-06
1.66988e-06
1.67002e-06
1.67021e-06
1.67022e-06
1.67019e-06
1.66998e-06
1.66969e-06
1.66957e-06
1.66972e-06
1.67002e-06
1.6702e-06
1.6702e-06
1.66998e-06
1.66954e-06
1.66914e-06
1.669e-06
1.66918e-06
1.6696e-06
1.67002e-06
1.67022e-06
1.66999e-06
1.66969e-06
1.66914e-06
1.66869e-06
1.66853e-06
1.66873e-06
1.66921e-06
1.66974e-06
1.67e-06
1.6699e-06
1.66988e-06
1.66957e-06
1.669e-06
1.66853e-06
1.66837e-06
1.66858e-06
1.66907e-06
1.66963e-06
1.66988e-06
1.67002e-06
1.66972e-06
1.66918e-06
1.66873e-06
1.66858e-06
1.66878e-06
1.66925e-06
1.66977e-06
1.67003e-06
1.67021e-06
1.67002e-06
1.6696e-06
1.66921e-06
1.66907e-06
1.66925e-06
1.66966e-06
1.67005e-06
1.67023e-06
1.6702e-06
1.67002e-06
1.66974e-06
1.66963e-06
1.66977e-06
1.67005e-06
1.6702e-06
1.67022e-06
1.67e-06
1.66988e-06
1.67003e-06
1.67023e-06
1.64086e-06
1.64038e-06
1.63999e-06
1.63857e-06
1.63848e-06
1.63847e-06
1.6385e-06
1.63988e-06
1.64002e-06
1.63999e-06
1.63816e-06
1.63577e-06
1.63577e-06
1.63577e-06
1.63577e-06
1.63797e-06
1.63849e-06
1.63857e-06
1.63577e-06
1.63582e-06
1.63585e-06
1.63585e-06
1.63582e-06
1.63576e-06
1.63823e-06
1.64017e-06
1.64086e-06
1.63848e-06
1.63576e-06
1.63585e-06
1.6359e-06
1.6359e-06
1.63585e-06
1.63577e-06
1.63812e-06
1.63999e-06
1.64038e-06
1.63847e-06
1.63577e-06
1.63585e-06
1.6359e-06
1.6359e-06
1.63585e-06
1.63577e-06
1.6381e-06
1.63873e-06
1.6385e-06
1.63577e-06
1.63581e-06
1.63585e-06
1.63585e-06
1.63582e-06
1.63578e-06
1.63815e-06
1.64004e-06
1.63988e-06
1.63797e-06
1.63576e-06
1.63576e-06
1.63576e-06
1.63575e-06
1.63765e-06
1.63841e-06
1.64021e-06
1.64001e-06
1.63849e-06
1.63823e-06
1.63811e-06
1.63809e-06
1.63815e-06
1.6384e-06
1.63985e-06
1.64016e-06
1.63999e-06
1.63873e-06
1.64003e-06
1.64021e-06
1.62324e-06
1.62308e-06
1.62298e-06
1.62132e-06
1.62121e-06
1.6212e-06
1.62125e-06
1.62281e-06
1.62306e-06
1.62298e-06
1.62093e-06
1.61801e-06
1.61801e-06
1.61801e-06
1.61801e-06
1.62075e-06
1.62139e-06
1.62131e-06
1.61801e-06
1.61802e-06
1.61803e-06
1.61803e-06
1.61802e-06
1.61801e-06
1.6211e-06
1.62304e-06
1.62323e-06
1.62121e-06
1.61801e-06
1.61803e-06
1.61804e-06
1.61804e-06
1.61803e-06
1.61801e-06
1.62092e-06
1.62276e-06
1.62308e-06
1.6212e-06
1.61801e-06
1.61803e-06
1.61804e-06
1.61804e-06
1.61803e-06
1.61802e-06
1.62088e-06
1.62156e-06
1.62125e-06
1.61801e-06
1.61802e-06
1.61803e-06
1.61803e-06
1.61802e-06
1.61801e-06
1.62099e-06
1.62289e-06
1.62281e-06
1.62075e-06
1.61801e-06
1.61801e-06
1.61801e-06
1.61801e-06
1.62044e-06
1.62127e-06
1.6231e-06
1.62306e-06
1.62139e-06
1.6211e-06
1.62092e-06
1.62088e-06
1.62099e-06
1.62127e-06
1.62276e-06
1.62304e-06
1.62276e-06
1.62156e-06
1.62288e-06
1.6231e-06
1.60601e-06
1.60584e-06
1.60579e-06
1.60407e-06
1.60397e-06
1.60395e-06
1.60401e-06
1.6056e-06
1.60586e-06
1.60579e-06
1.60368e-06
1.60065e-06
1.60065e-06
1.60065e-06
1.60065e-06
1.60352e-06
1.60418e-06
1.60407e-06
1.60065e-06
1.60065e-06
1.60065e-06
1.60065e-06
1.60065e-06
1.60065e-06
1.60392e-06
1.60582e-06
1.60601e-06
1.60397e-06
1.60065e-06
1.60065e-06
1.60065e-06
1.60065e-06
1.60065e-06
1.60065e-06
1.60376e-06
1.60553e-06
1.60584e-06
1.60395e-06
1.60065e-06
1.60065e-06
1.60065e-06
1.60065e-06
1.60065e-06
1.60065e-06
1.60371e-06
1.60432e-06
1.60401e-06
1.60065e-06
1.60065e-06
1.60065e-06
1.60065e-06
1.60065e-06
1.60065e-06
1.60382e-06
1.60566e-06
1.6056e-06
1.60352e-06
1.60065e-06
1.60065e-06
1.60065e-06
1.60065e-06
1.60327e-06
1.60408e-06
1.60589e-06
1.60586e-06
1.60418e-06
1.60392e-06
1.60376e-06
1.60371e-06
1.60383e-06
1.60408e-06
1.60556e-06
1.60582e-06
1.60553e-06
1.60432e-06
1.60566e-06
1.60589e-06
1.58873e-06
1.58856e-06
1.5885e-06
1.58678e-06
1.58667e-06
1.58666e-06
1.58672e-06
1.58832e-06
1.58858e-06
1.5885e-06
1.58637e-06
1.58332e-06
1.58332e-06
1.58332e-06
1.58332e-06
1.58622e-06
1.58689e-06
1.58678e-06
1.58332e-06
1.58332e-06
1.58332e-06
1.58332e-06
1.58332e-06
1.58332e-06
1.58664e-06
1.58854e-06
1.58873e-06
1.58667e-06
1.58332e-06
1.58332e-06
1.58332e-06
1.58332e-06
1.58332e-06
1.58332e-06
1.5865e-06
1.58825e-06
1.58856e-06
1.58666e-06
1.58332e-06
1.58332e-06
1.58332e-06
1.58332e-06
1.58332e-06
1.58332e-06
1.58645e-06
1.58704e-06
1.58672e-06
1.58332e-06
1.58332e-06
1.58332e-06
1.58332e-06
1.58332e-06
1.58332e-06
1.58656e-06
1.58838e-06
1.58832e-06
1.58622e-06
1.58332e-06
1.58332e-06
1.58332e-06
1.58332e-06
1.586e-06
1.5868e-06
1.58861e-06
1.58858e-06
1.58689e-06
1.58664e-06
1.5865e-06
1.58645e-06
1.58656e-06
1.5868e-06
1.58827e-06
1.58854e-06
1.58825e-06
1.58704e-06
1.58838e-06
1.58861e-06
1.57143e-06
1.57126e-06
1.5712e-06
1.56948e-06
1.56937e-06
1.56935e-06
1.56942e-06
1.57101e-06
1.57128e-06
1.5712e-06
1.56906e-06
1.56601e-06
1.56601e-06
1.56601e-06
1.56601e-06
1.56892e-06
1.56959e-06
1.56948e-06
1.56601e-06
1.56601e-06
1.56601e-06
1.56601e-06
1.56601e-06
1.56601e-06
1.56934e-06
1.57124e-06
1.57143e-06
1.56937e-06
1.56601e-06
1.56601e-06
1.56601e-06
1.56601e-06
1.56601e-06
1.56601e-06
1.5692e-06
1.57095e-06
1.57127e-06
1.56936e-06
1.56601e-06
1.56601e-06
1.56601e-06
1.56601e-06
1.56601e-06
1.56601e-06
1.56916e-06
1.56974e-06
1.56942e-06
1.56601e-06
1.56601e-06
1.56601e-06
1.56601e-06
1.56601e-06
1.56601e-06
1.56926e-06
1.57108e-06
1.57101e-06
1.56892e-06
1.56601e-06
1.56601e-06
1.56601e-06
1.56601e-06
1.5687e-06
1.56949e-06
1.57131e-06
1.57128e-06
1.56959e-06
1.56934e-06
1.5692e-06
1.56916e-06
1.56926e-06
1.5695e-06
1.57097e-06
1.57124e-06
1.57095e-06
1.56974e-06
1.57108e-06
1.57131e-06
1.55412e-06
1.55395e-06
1.55389e-06
1.55217e-06
1.55206e-06
1.55205e-06
1.55211e-06
1.55371e-06
1.55397e-06
1.55389e-06
1.55175e-06
1.5487e-06
1.5487e-06
1.5487e-06
1.5487e-06
1.55161e-06
1.55228e-06
1.55217e-06
1.5487e-06
1.5487e-06
1.5487e-06
1.5487e-06
1.5487e-06
1.5487e-06
1.55203e-06
1.55393e-06
1.55412e-06
1.55206e-06
1.5487e-06
1.5487e-06
1.5487e-06
1.5487e-06
1.5487e-06
1.5487e-06
1.55189e-06
1.55365e-06
1.55396e-06
1.55205e-06
1.5487e-06
1.5487e-06
1.5487e-06
1.5487e-06
1.5487e-06
1.5487e-06
1.55185e-06
1.55243e-06
1.55211e-06
1.5487e-06
1.5487e-06
1.5487e-06
1.5487e-06
1.5487e-06
1.5487e-06
1.55195e-06
1.55377e-06
1.55371e-06
1.55161e-06
1.5487e-06
1.5487e-06
1.5487e-06
1.5487e-06
1.55139e-06
1.55219e-06
1.554e-06
1.55397e-06
1.55228e-06
1.55203e-06
1.55189e-06
1.55185e-06
1.55195e-06
1.55219e-06
1.55366e-06
1.55393e-06
1.55365e-06
1.55243e-06
1.55377e-06
1.554e-06
1.53681e-06
1.53664e-06
1.53658e-06
1.53486e-06
1.53475e-06
1.53474e-06
1.5348e-06
1.5364e-06
1.53666e-06
1.53658e-06
1.53444e-06
1.53139e-06
1.53139e-06
1.53139e-06
1.53139e-06
1.5343e-06
1.53497e-06
1.53486e-06
1.53139e-06
1.53139e-06
1.53139e-06
1.53139e-06
1.53139e-06
1.53139e-06
1.53472e-06
1.53662e-06
1.53681e-06
1.53475e-06
1.53139e-06
1.53139e-06
1.53139e-06
1.53139e-06
1.53139e-06
1.53139e-06
1.53459e-06
1.53634e-06
1.53665e-06
1.53474e-06
1.53139e-06
1.53139e-06
1.53139e-06
1.53139e-06
1.53139e-06
1.53139e-06
1.53454e-06
1.53512e-06
1.5348e-06
1.53139e-06
1.53139e-06
1.53139e-06
1.53139e-06
1.53139e-06
1.53139e-06
1.53464e-06
1.53646e-06
1.5364e-06
1.5343e-06
1.53139e-06
1.53139e-06
1.53139e-06
1.53139e-06
1.53408e-06
1.53488e-06
1.53669e-06
1.53666e-06
1.53497e-06
1.53472e-06
1.53459e-06
1.53454e-06
1.53464e-06
1.53488e-06
1.53635e-06
1.53662e-06
1.53634e-06
1.53512e-06
1.53646e-06
1.53669e-06
1.5195e-06
1.51934e-06
1.51928e-06
1.51755e-06
1.51744e-06
1.51743e-06
1.51749e-06
1.51909e-06
1.51935e-06
1.51928e-06
1.51713e-06
1.51408e-06
1.51408e-06
1.51408e-06
1.51408e-06
1.51699e-06
1.51766e-06
1.51755e-06
1.51408e-06
1.51408e-06
1.51408e-06
1.51408e-06
1.51408e-06
1.51408e-06
1.51742e-06
1.51931e-06
1.5195e-06
1.51744e-06
1.51408e-06
1.51408e-06
1.51408e-06
1.51408e-06
1.51408e-06
1.51408e-06
1.51728e-06
1.51903e-06
1.51934e-06
1.51743e-06
1.51408e-06
1.51408e-06
1.51408e-06
1.51408e-06
1.51408e-06
1.51408e-06
1.51723e-06
1.51781e-06
1.51749e-06
1.51408e-06
1.51408e-06
1.51408e-06
1.51408e-06
1.51408e-06
1.51408e-06
1.51733e-06
1.51915e-06
1.51909e-06
1.51699e-06
1.51408e-06
1.51408e-06
1.51408e-06
1.51408e-06
1.51677e-06
1.51757e-06
1.51938e-06
1.51935e-06
1.51766e-06
1.51742e-06
1.51728e-06
1.51723e-06
1.51733e-06
1.51757e-06
1.51904e-06
1.51931e-06
1.51903e-06
1.51781e-06
1.51915e-06
1.51938e-06
1.50219e-06
1.50203e-06
1.50197e-06
1.50024e-06
1.50013e-06
1.50012e-06
1.50018e-06
1.50178e-06
1.50204e-06
1.50197e-06
1.49982e-06
1.49677e-06
1.49677e-06
1.49677e-06
1.49677e-06
1.49968e-06
1.50035e-06
1.50024e-06
1.49677e-06
1.49677e-06
1.49677e-06
1.49677e-06
1.49677e-06
1.49677e-06
1.50011e-06
1.502e-06
1.50218e-06
1.50014e-06
1.49677e-06
1.49677e-06
1.49677e-06
1.49677e-06
1.49677e-06
1.49677e-06
1.49997e-06
1.50172e-06
1.50203e-06
1.50012e-06
1.49677e-06
1.49677e-06
1.49677e-06
1.49677e-06
1.49677e-06
1.49677e-06
1.49992e-06
1.5005e-06
1.50018e-06
1.49677e-06
1.49677e-06
1.49677e-06
1.49677e-06
1.49677e-06
1.49677e-06
1.50002e-06
1.50184e-06
1.50178e-06
1.49968e-06
1.49677e-06
1.49677e-06
1.49677e-06
1.49677e-06
1.49946e-06
1.50026e-06
1.50207e-06
1.50204e-06
1.50035e-06
1.50011e-06
1.49997e-06
1.49993e-06
1.50002e-06
1.50026e-06
1.50173e-06
1.502e-06
1.50172e-06
1.5005e-06
1.50184e-06
1.50207e-06
1.48488e-06
1.48472e-06
1.48466e-06
1.48293e-06
1.48282e-06
1.48281e-06
1.48287e-06
1.48447e-06
1.48473e-06
1.48466e-06
1.48251e-06
1.47946e-06
1.47946e-06
1.47946e-06
1.47946e-06
1.48237e-06
1.48304e-06
1.48293e-06
1.47946e-06
1.47946e-06
1.47946e-06
1.47946e-06
1.47946e-06
1.47946e-06
1.4828e-06
1.48469e-06
1.48488e-06
1.48282e-06
1.47946e-06
1.47946e-06
1.47946e-06
1.47946e-06
1.47946e-06
1.47946e-06
1.48266e-06
1.48441e-06
1.48472e-06
1.48281e-06
1.47946e-06
1.47946e-06
1.47946e-06
1.47946e-06
1.47946e-06
1.47946e-06
1.48261e-06
1.48319e-06
1.48287e-06
1.47946e-06
1.47946e-06
1.47946e-06
1.47946e-06
1.47946e-06
1.47946e-06
1.48271e-06
1.48453e-06
1.48447e-06
1.48237e-06
1.47946e-06
1.47946e-06
1.47946e-06
1.47946e-06
1.48215e-06
1.48295e-06
1.48476e-06
1.48473e-06
1.48304e-06
1.4828e-06
1.48266e-06
1.48261e-06
1.48271e-06
1.48295e-06
1.48442e-06
1.48469e-06
1.48441e-06
1.48319e-06
1.48453e-06
1.48476e-06
1.46757e-06
1.46741e-06
1.46735e-06
1.46562e-06
1.46551e-06
1.4655e-06
1.46556e-06
1.46716e-06
1.46742e-06
1.46735e-06
1.4652e-06
1.46215e-06
1.46215e-06
1.46215e-06
1.46215e-06
1.46506e-06
1.46573e-06
1.46562e-06
1.46215e-06
1.46215e-06
1.46215e-06
1.46215e-06
1.46215e-06
1.46215e-06
1.46549e-06
1.46738e-06
1.46757e-06
1.46551e-06
1.46215e-06
1.46215e-06
1.46215e-06
1.46215e-06
1.46215e-06
1.46215e-06
1.46535e-06
1.4671e-06
1.46741e-06
1.4655e-06
1.46215e-06
1.46215e-06
1.46215e-06
1.46215e-06
1.46215e-06
1.46215e-06
1.4653e-06
1.46588e-06
1.46556e-06
1.46215e-06
1.46215e-06
1.46215e-06
1.46215e-06
1.46215e-06
1.46215e-06
1.4654e-06
1.46722e-06
1.46716e-06
1.46506e-06
1.46215e-06
1.46215e-06
1.46215e-06
1.46215e-06
1.46484e-06
1.46564e-06
1.46745e-06
1.46742e-06
1.46573e-06
1.46549e-06
1.46535e-06
1.4653e-06
1.4654e-06
1.46564e-06
1.46711e-06
1.46738e-06
1.4671e-06
1.46588e-06
1.46722e-06
1.46745e-06
1.45026e-06
1.4501e-06
1.45003e-06
1.44831e-06
1.4482e-06
1.44819e-06
1.44825e-06
1.44985e-06
1.45011e-06
1.45004e-06
1.44789e-06
1.44484e-06
1.44484e-06
1.44484e-06
1.44484e-06
1.44775e-06
1.44842e-06
1.44831e-06
1.44484e-06
1.44484e-06
1.44484e-06
1.44484e-06
1.44484e-06
1.44484e-06
1.44817e-06
1.45007e-06
1.45026e-06
1.4482e-06
1.44484e-06
1.44484e-06
1.44484e-06
1.44484e-06
1.44484e-06
1.44484e-06
1.44804e-06
1.44979e-06
1.4501e-06
1.44819e-06
1.44484e-06
1.44484e-06
1.44484e-06
1.44484e-06
1.44484e-06
1.44484e-06
1.44799e-06
1.44857e-06
1.44825e-06
1.44484e-06
1.44484e-06
1.44484e-06
1.44484e-06
1.44484e-06
1.44484e-06
1.44809e-06
1.44991e-06
1.44985e-06
1.44775e-06
1.44484e-06
1.44484e-06
1.44484e-06
1.44484e-06
1.44753e-06
1.44833e-06
1.45014e-06
1.45011e-06
1.44842e-06
1.44818e-06
1.44804e-06
1.44799e-06
1.44809e-06
1.44833e-06
1.4498e-06
1.45007e-06
1.44979e-06
1.44857e-06
1.44991e-06
1.45014e-06
1.43295e-06
1.43278e-06
1.43272e-06
1.431e-06
1.43089e-06
1.43088e-06
1.43094e-06
1.43254e-06
1.4328e-06
1.43272e-06
1.43058e-06
1.42753e-06
1.42753e-06
1.42753e-06
1.42753e-06
1.43044e-06
1.43111e-06
1.431e-06
1.42753e-06
1.42753e-06
1.42753e-06
1.42753e-06
1.42753e-06
1.42753e-06
1.43086e-06
1.43276e-06
1.43296e-06
1.43089e-06
1.42753e-06
1.42753e-06
1.42753e-06
1.42753e-06
1.42753e-06
1.42753e-06
1.43073e-06
1.43248e-06
1.43279e-06
1.43088e-06
1.42753e-06
1.42753e-06
1.42753e-06
1.42753e-06
1.42753e-06
1.42753e-06
1.43068e-06
1.43126e-06
1.43094e-06
1.42753e-06
1.42753e-06
1.42753e-06
1.42753e-06
1.42753e-06
1.42753e-06
1.43078e-06
1.4326e-06
1.43254e-06
1.43044e-06
1.42753e-06
1.42753e-06
1.42753e-06
1.42753e-06
1.43022e-06
1.43102e-06
1.43283e-06
1.4328e-06
1.43111e-06
1.43087e-06
1.43073e-06
1.43068e-06
1.43078e-06
1.43102e-06
1.43249e-06
1.43276e-06
1.43248e-06
1.43126e-06
1.4326e-06
1.43283e-06
1.41564e-06
1.41547e-06
1.41541e-06
1.41369e-06
1.41358e-06
1.41357e-06
1.41363e-06
1.41523e-06
1.41549e-06
1.41542e-06
1.41327e-06
1.41022e-06
1.41022e-06
1.41022e-06
1.41022e-06
1.41313e-06
1.4138e-06
1.41369e-06
1.41022e-06
1.41022e-06
1.41022e-06
1.41022e-06
1.41022e-06
1.41022e-06
1.41355e-06
1.41545e-06
1.41564e-06
1.41358e-06
1.41022e-06
1.41022e-06
1.41022e-06
1.41022e-06
1.41022e-06
1.41022e-06
1.41342e-06
1.41517e-06
1.41549e-06
1.41357e-06
1.41022e-06
1.41022e-06
1.41022e-06
1.41022e-06
1.41022e-06
1.41022e-06
1.41337e-06
1.41395e-06
1.41363e-06
1.41022e-06
1.41022e-06
1.41022e-06
1.41022e-06
1.41022e-06
1.41022e-06
1.41347e-06
1.41529e-06
1.41523e-06
1.41313e-06
1.41022e-06
1.41022e-06
1.41022e-06
1.41022e-06
1.41291e-06
1.41371e-06
1.41552e-06
1.41549e-06
1.4138e-06
1.41356e-06
1.41342e-06
1.41337e-06
1.41347e-06
1.41371e-06
1.41518e-06
1.41545e-06
1.41517e-06
1.41395e-06
1.41529e-06
1.41552e-06
1.39833e-06
1.39817e-06
1.3981e-06
1.39638e-06
1.39627e-06
1.39626e-06
1.39632e-06
1.39792e-06
1.39818e-06
1.39811e-06
1.39596e-06
1.39291e-06
1.39291e-06
1.39291e-06
1.39291e-06
1.39582e-06
1.39649e-06
1.39638e-06
1.39291e-06
1.39291e-06
1.39291e-06
1.39291e-06
1.39291e-06
1.39291e-06
1.39625e-06
1.39814e-06
1.39833e-06
1.39627e-06
1.39291e-06
1.39291e-06
1.39291e-06
1.39291e-06
1.39291e-06
1.39291e-06
1.39611e-06
1.39786e-06
1.39817e-06
1.39626e-06
1.39291e-06
1.39291e-06
1.39291e-06
1.39291e-06
1.39291e-06
1.39291e-06
1.39606e-06
1.39664e-06
1.39632e-06
1.39291e-06
1.39291e-06
1.39291e-06
1.39291e-06
1.39291e-06
1.39291e-06
1.39616e-06
1.39798e-06
1.39792e-06
1.39582e-06
1.39291e-06
1.39291e-06
1.39291e-06
1.39291e-06
1.3956e-06
1.3964e-06
1.39821e-06
1.39818e-06
1.39649e-06
1.39625e-06
1.39611e-06
1.39606e-06
1.39616e-06
1.3964e-06
1.39787e-06
1.39814e-06
1.39786e-06
1.39664e-06
1.39798e-06
1.39821e-06
1.38102e-06
1.38086e-06
1.3808e-06
1.37907e-06
1.37896e-06
1.37895e-06
1.37901e-06
1.38061e-06
1.38087e-06
1.3808e-06
1.37865e-06
1.3756e-06
1.3756e-06
1.3756e-06
1.3756e-06
1.37851e-06
1.37918e-06
1.37907e-06
1.3756e-06
1.3756e-06
1.3756e-06
1.3756e-06
1.3756e-06
1.3756e-06
1.37894e-06
1.38083e-06
1.38102e-06
1.37896e-06
1.3756e-06
1.3756e-06
1.3756e-06
1.3756e-06
1.3756e-06
1.3756e-06
1.3788e-06
1.38055e-06
1.38086e-06
1.37895e-06
1.3756e-06
1.3756e-06
1.3756e-06
1.3756e-06
1.3756e-06
1.3756e-06
1.37875e-06
1.37933e-06
1.37901e-06
1.3756e-06
1.3756e-06
1.3756e-06
1.3756e-06
1.3756e-06
1.3756e-06
1.37885e-06
1.38067e-06
1.38061e-06
1.37851e-06
1.3756e-06
1.3756e-06
1.3756e-06
1.3756e-06
1.37829e-06
1.37909e-06
1.3809e-06
1.38087e-06
1.37918e-06
1.37894e-06
1.3788e-06
1.37876e-06
1.37886e-06
1.37909e-06
1.38056e-06
1.38083e-06
1.38055e-06
1.37933e-06
1.38067e-06
1.3809e-06
1.36371e-06
1.36355e-06
1.36349e-06
1.36176e-06
1.36165e-06
1.36164e-06
1.3617e-06
1.3633e-06
1.36356e-06
1.36349e-06
1.36134e-06
1.35829e-06
1.35829e-06
1.35829e-06
1.35829e-06
1.3612e-06
1.36187e-06
1.36176e-06
1.35829e-06
1.35829e-06
1.35829e-06
1.35829e-06
1.35829e-06
1.35829e-06
1.36163e-06
1.36352e-06
1.36371e-06
1.36165e-06
1.35829e-06
1.35829e-06
1.35829e-06
1.35829e-06
1.35829e-06
1.35829e-06
1.36149e-06
1.36324e-06
1.36355e-06
1.36164e-06
1.35829e-06
1.35829e-06
1.35829e-06
1.35829e-06
1.35829e-06
1.35829e-06
1.36145e-06
1.36202e-06
1.3617e-06
1.35829e-06
1.35829e-06
1.35829e-06
1.35829e-06
1.35829e-06
1.35829e-06
1.36154e-06
1.36336e-06
1.3633e-06
1.3612e-06
1.35829e-06
1.35829e-06
1.35829e-06
1.35829e-06
1.36098e-06
1.36178e-06
1.36359e-06
1.36356e-06
1.36187e-06
1.36163e-06
1.36149e-06
1.36145e-06
1.36155e-06
1.36178e-06
1.36325e-06
1.36352e-06
1.36324e-06
1.36202e-06
1.36336e-06
1.36359e-06
1.3464e-06
1.34624e-06
1.34618e-06
1.34445e-06
1.34434e-06
1.34433e-06
1.34439e-06
1.34599e-06
1.34625e-06
1.34618e-06
1.34403e-06
1.34098e-06
1.34098e-06
1.34098e-06
1.34098e-06
1.34389e-06
1.34456e-06
1.34445e-06
1.34098e-06
1.34098e-06
1.34098e-06
1.34098e-06
1.34098e-06
1.34098e-06
1.34432e-06
1.34621e-06
1.3464e-06
1.34434e-06
1.34098e-06
1.34098e-06
1.34098e-06
1.34098e-06
1.34098e-06
1.34098e-06
1.34418e-06
1.34593e-06
1.34623e-06
1.34433e-06
1.34098e-06
1.34098e-06
1.34098e-06
1.34098e-06
1.34098e-06
1.34098e-06
1.34413e-06
1.34471e-06
1.34439e-06
1.34098e-06
1.34098e-06
1.34098e-06
1.34098e-06
1.34098e-06
1.34098e-06
1.34423e-06
1.34605e-06
1.34599e-06
1.34389e-06
1.34098e-06
1.34098e-06
1.34098e-06
1.34098e-06
1.34367e-06
1.34447e-06
1.34628e-06
1.34625e-06
1.34456e-06
1.34432e-06
1.34418e-06
1.34414e-06
1.34424e-06
1.34447e-06
1.34594e-06
1.34621e-06
1.34593e-06
1.34471e-06
1.34605e-06
1.34628e-06
1.32909e-06
1.32893e-06
1.32887e-06
1.32714e-06
1.32703e-06
1.32702e-06
1.32708e-06
1.32868e-06
1.32894e-06
1.32887e-06
1.32672e-06
1.32367e-06
1.32367e-06
1.32367e-06
1.32367e-06
1.32658e-06
1.32725e-06
1.32714e-06
1.32367e-06
1.32367e-06
1.32367e-06
1.32367e-06
1.32367e-06
1.32367e-06
1.32701e-06
1.3289e-06
1.32909e-06
1.32703e-06
1.32367e-06
1.32367e-06
1.32367e-06
1.32367e-06
1.32367e-06
1.32367e-06
1.32687e-06
1.32862e-06
1.32893e-06
1.32702e-06
1.32367e-06
1.32367e-06
1.32367e-06
1.32367e-06
1.32367e-06
1.32367e-06
1.32682e-06
1.3274e-06
1.32708e-06
1.32367e-06
1.32367e-06
1.32367e-06
1.32367e-06
1.32367e-06
1.32367e-06
1.32692e-06
1.32874e-06
1.32868e-06
1.32658e-06
1.32367e-06
1.32367e-06
1.32367e-06
1.32367e-06
1.32636e-06
1.32716e-06
1.32897e-06
1.32894e-06
1.32725e-06
1.32701e-06
1.32687e-06
1.32683e-06
1.32693e-06
1.32716e-06
1.32863e-06
1.3289e-06
1.32862e-06
1.3274e-06
1.32874e-06
1.32897e-06
1.31178e-06
1.31162e-06
1.31156e-06
1.30983e-06
1.30972e-06
1.30971e-06
1.30977e-06
1.31137e-06
1.31163e-06
1.31156e-06
1.30941e-06
1.30636e-06
1.30636e-06
1.30636e-06
1.30636e-06
1.30927e-06
1.30994e-06
1.30983e-06
1.30636e-06
1.30636e-06
1.30636e-06
1.30636e-06
1.30636e-06
1.30636e-06
1.3097e-06
1.31159e-06
1.31178e-06
1.30972e-06
1.30636e-06
1.30636e-06
1.30636e-06
1.30636e-06
1.30636e-06
1.30636e-06
1.30956e-06
1.31131e-06
1.31162e-06
1.30971e-06
1.30636e-06
1.30636e-06
1.30636e-06
1.30636e-06
1.30636e-06
1.30636e-06
1.30951e-06
1.31009e-06
1.30977e-06
1.30636e-06
1.30636e-06
1.30636e-06
1.30636e-06
1.30636e-06
1.30636e-06
1.30961e-06
1.31143e-06
1.31137e-06
1.30927e-06
1.30636e-06
1.30636e-06
1.30636e-06
1.30636e-06
1.30905e-06
1.30985e-06
1.31166e-06
1.31163e-06
1.30994e-06
1.3097e-06
1.30956e-06
1.30952e-06
1.30961e-06
1.30985e-06
1.31132e-06
1.31159e-06
1.31131e-06
1.3101e-06
1.31143e-06
1.31166e-06
1.29447e-06
1.2943e-06
1.29425e-06
1.29252e-06
1.29241e-06
1.2924e-06
1.29246e-06
1.29406e-06
1.29432e-06
1.29425e-06
1.2921e-06
1.28905e-06
1.28905e-06
1.28905e-06
1.28905e-06
1.29196e-06
1.29263e-06
1.29252e-06
1.28905e-06
1.28905e-06
1.28905e-06
1.28905e-06
1.28905e-06
1.28905e-06
1.29239e-06
1.29428e-06
1.29447e-06
1.29241e-06
1.28905e-06
1.28905e-06
1.28905e-06
1.28905e-06
1.28905e-06
1.28905e-06
1.29225e-06
1.294e-06
1.2943e-06
1.2924e-06
1.28905e-06
1.28905e-06
1.28905e-06
1.28905e-06
1.28905e-06
1.28905e-06
1.2922e-06
1.29278e-06
1.29246e-06
1.28905e-06
1.28905e-06
1.28905e-06
1.28905e-06
1.28905e-06
1.28905e-06
1.2923e-06
1.29412e-06
1.29406e-06
1.29196e-06
1.28905e-06
1.28905e-06
1.28905e-06
1.28905e-06
1.29174e-06
1.29254e-06
1.29435e-06
1.29432e-06
1.29263e-06
1.29238e-06
1.29225e-06
1.2922e-06
1.2923e-06
1.29254e-06
1.29401e-06
1.29428e-06
1.294e-06
1.29278e-06
1.29412e-06
1.29435e-06
1.27716e-06
1.277e-06
1.27693e-06
1.27521e-06
1.2751e-06
1.27509e-06
1.27515e-06
1.27675e-06
1.27701e-06
1.27694e-06
1.27479e-06
1.27174e-06
1.27174e-06
1.27174e-06
1.27174e-06
1.27465e-06
1.27532e-06
1.27521e-06
1.27174e-06
1.27174e-06
1.27174e-06
1.27174e-06
1.27174e-06
1.27174e-06
1.27507e-06
1.27697e-06
1.27716e-06
1.2751e-06
1.27174e-06
1.27174e-06
1.27174e-06
1.27174e-06
1.27174e-06
1.27174e-06
1.27494e-06
1.27669e-06
1.27699e-06
1.27509e-06
1.27174e-06
1.27174e-06
1.27174e-06
1.27174e-06
1.27174e-06
1.27174e-06
1.27489e-06
1.27547e-06
1.27515e-06
1.27174e-06
1.27174e-06
1.27174e-06
1.27174e-06
1.27174e-06
1.27174e-06
1.27499e-06
1.27681e-06
1.27675e-06
1.27465e-06
1.27174e-06
1.27174e-06
1.27174e-06
1.27174e-06
1.27443e-06
1.27523e-06
1.27704e-06
1.27701e-06
1.27532e-06
1.27507e-06
1.27494e-06
1.27489e-06
1.27499e-06
1.27523e-06
1.2767e-06
1.27697e-06
1.27669e-06
1.27547e-06
1.27681e-06
1.27704e-06
1.25985e-06
1.25968e-06
1.25962e-06
1.2579e-06
1.25779e-06
1.25778e-06
1.25784e-06
1.25944e-06
1.2597e-06
1.25963e-06
1.25748e-06
1.25443e-06
1.25443e-06
1.25443e-06
1.25443e-06
1.25734e-06
1.25801e-06
1.2579e-06
1.25443e-06
1.25443e-06
1.25443e-06
1.25443e-06
1.25443e-06
1.25443e-06
1.25776e-06
1.25966e-06
1.25985e-06
1.25779e-06
1.25443e-06
1.25443e-06
1.25443e-06
1.25443e-06
1.25443e-06
1.25443e-06
1.25763e-06
1.25938e-06
1.25968e-06
1.25778e-06
1.25443e-06
1.25443e-06
1.25443e-06
1.25443e-06
1.25443e-06
1.25443e-06
1.25758e-06
1.25816e-06
1.25784e-06
1.25443e-06
1.25443e-06
1.25443e-06
1.25443e-06
1.25443e-06
1.25443e-06
1.25768e-06
1.2595e-06
1.25944e-06
1.25734e-06
1.25443e-06
1.25443e-06
1.25443e-06
1.25443e-06
1.25712e-06
1.25792e-06
1.25973e-06
1.2597e-06
1.25801e-06
1.25776e-06
1.25763e-06
1.25758e-06
1.25768e-06
1.25792e-06
1.25939e-06
1.25966e-06
1.25938e-06
1.25816e-06
1.2595e-06
1.25973e-06
1.24254e-06
1.24238e-06
1.24231e-06
1.24059e-06
1.24048e-06
1.24047e-06
1.24053e-06
1.24213e-06
1.24239e-06
1.24232e-06
1.24017e-06
1.23712e-06
1.23712e-06
1.23712e-06
1.23712e-06
1.24003e-06
1.2407e-06
1.24059e-06
1.23712e-06
1.23712e-06
1.23712e-06
1.23712e-06
1.23712e-06
1.23712e-06
1.24045e-06
1.24235e-06
1.24254e-06
1.24048e-06
1.23712e-06
1.23712e-06
1.23712e-06
1.23712e-06
1.23712e-06
1.23712e-06
1.24032e-06
1.24207e-06
1.24237e-06
1.24047e-06
1.23712e-06
1.23712e-06
1.23712e-06
1.23712e-06
1.23712e-06
1.23712e-06
1.24027e-06
1.24085e-06
1.24053e-06
1.23712e-06
1.23712e-06
1.23712e-06
1.23712e-06
1.23712e-06
1.23712e-06
1.24037e-06
1.24219e-06
1.24213e-06
1.24003e-06
1.23712e-06
1.23712e-06
1.23712e-06
1.23712e-06
1.23981e-06
1.24061e-06
1.24242e-06
1.24239e-06
1.2407e-06
1.24046e-06
1.24032e-06
1.24027e-06
1.24037e-06
1.24061e-06
1.24208e-06
1.24235e-06
1.24207e-06
1.24086e-06
1.24219e-06
1.24242e-06
1.22523e-06
1.22507e-06
1.22501e-06
1.22328e-06
1.22317e-06
1.22316e-06
1.22322e-06
1.22482e-06
1.22508e-06
1.22501e-06
1.22286e-06
1.21981e-06
1.21981e-06
1.21981e-06
1.21981e-06
1.22272e-06
1.22339e-06
1.22328e-06
1.21981e-06
1.21981e-06
1.21981e-06
1.21981e-06
1.21981e-06
1.21981e-06
1.22315e-06
1.22504e-06
1.22523e-06
1.22317e-06
1.21981e-06
1.21981e-06
1.21981e-06
1.21981e-06
1.21981e-06
1.21981e-06
1.22301e-06
1.22476e-06
1.22506e-06
1.22316e-06
1.21981e-06
1.21981e-06
1.21981e-06
1.21981e-06
1.21981e-06
1.21981e-06
1.22296e-06
1.22354e-06
1.22322e-06
1.21981e-06
1.21981e-06
1.21981e-06
1.21981e-06
1.21981e-06
1.21981e-06
1.22306e-06
1.22488e-06
1.22482e-06
1.22272e-06
1.21981e-06
1.21981e-06
1.21981e-06
1.21981e-06
1.2225e-06
1.2233e-06
1.22511e-06
1.22508e-06
1.22339e-06
1.22315e-06
1.22301e-06
1.22297e-06
1.22306e-06
1.2233e-06
1.22477e-06
1.22504e-06
1.22476e-06
1.22354e-06
1.22488e-06
1.22511e-06
1.20792e-06
1.20776e-06
1.2077e-06
1.20597e-06
1.20586e-06
1.20585e-06
1.20591e-06
1.20751e-06
1.20777e-06
1.2077e-06
1.20555e-06
1.2025e-06
1.2025e-06
1.2025e-06
1.2025e-06
1.20541e-06
1.20608e-06
1.20597e-06
1.2025e-06
1.2025e-06
1.2025e-06
1.2025e-06
1.2025e-06
1.2025e-06
1.20584e-06
1.20773e-06
1.20792e-06
1.20586e-06
1.2025e-06
1.2025e-06
1.2025e-06
1.2025e-06
1.2025e-06
1.2025e-06
1.2057e-06
1.20745e-06
1.20776e-06
1.20585e-06
1.2025e-06
1.2025e-06
1.2025e-06
1.2025e-06
1.2025e-06
1.2025e-06
1.20565e-06
1.20623e-06
1.20591e-06
1.2025e-06
1.2025e-06
1.2025e-06
1.2025e-06
1.2025e-06
1.2025e-06
1.20575e-06
1.20757e-06
1.20751e-06
1.20541e-06
1.2025e-06
1.2025e-06
1.2025e-06
1.2025e-06
1.20519e-06
1.20599e-06
1.2078e-06
1.20777e-06
1.20608e-06
1.20584e-06
1.2057e-06
1.20566e-06
1.20575e-06
1.20599e-06
1.20746e-06
1.20773e-06
1.20745e-06
1.20623e-06
1.20757e-06
1.2078e-06
1.19061e-06
1.19045e-06
1.19039e-06
1.18866e-06
1.18855e-06
1.18854e-06
1.1886e-06
1.1902e-06
1.19046e-06
1.19039e-06
1.18824e-06
1.18519e-06
1.18519e-06
1.18519e-06
1.18519e-06
1.1881e-06
1.18877e-06
1.18866e-06
1.18519e-06
1.18519e-06
1.18519e-06
1.18519e-06
1.18519e-06
1.18519e-06
1.18853e-06
1.19042e-06
1.19061e-06
1.18856e-06
1.18519e-06
1.18519e-06
1.18519e-06
1.18519e-06
1.18519e-06
1.18519e-06
1.18839e-06
1.19014e-06
1.19045e-06
1.18854e-06
1.18519e-06
1.18519e-06
1.18519e-06
1.18519e-06
1.18519e-06
1.18519e-06
1.18834e-06
1.18892e-06
1.1886e-06
1.18519e-06
1.18519e-06
1.18519e-06
1.18519e-06
1.18519e-06
1.18519e-06
1.18844e-06
1.19026e-06
1.1902e-06
1.1881e-06
1.18519e-06
1.18519e-06
1.18519e-06
1.18519e-06
1.18788e-06
1.18868e-06
1.19049e-06
1.19046e-06
1.18877e-06
1.18853e-06
1.18839e-06
1.18835e-06
1.18845e-06
1.18868e-06
1.19015e-06
1.19042e-06
1.19014e-06
1.18892e-06
1.19026e-06
1.19049e-06
1.1733e-06
1.17314e-06
1.17308e-06
1.17135e-06
1.17124e-06
1.17123e-06
1.17129e-06
1.17289e-06
1.17315e-06
1.17308e-06
1.17093e-06
1.16788e-06
1.16788e-06
1.16788e-06
1.16788e-06
1.17079e-06
1.17146e-06
1.17135e-06
1.16788e-06
1.16788e-06
1.16788e-06
1.16788e-06
1.16788e-06
1.16788e-06
1.17122e-06
1.17311e-06
1.1733e-06
1.17125e-06
1.16788e-06
1.16788e-06
1.16788e-06
1.16788e-06
1.16788e-06
1.16788e-06
1.17108e-06
1.17283e-06
1.17314e-06
1.17123e-06
1.16788e-06
1.16788e-06
1.16788e-06
1.16788e-06
1.16788e-06
1.16788e-06
1.17103e-06
1.17161e-06
1.17129e-06
1.16788e-06
1.16788e-06
1.16788e-06
1.16788e-06
1.16788e-06
1.16788e-06
1.17113e-06
1.17295e-06
1.17289e-06
1.17079e-06
1.16788e-06
1.16788e-06
1.16788e-06
1.16788e-06
1.17057e-06
1.17137e-06
1.17318e-06
1.17315e-06
1.17146e-06
1.17122e-06
1.17108e-06
1.17104e-06
1.17113e-06
1.17137e-06
1.17284e-06
1.17311e-06
1.17283e-06
1.17161e-06
1.17295e-06
1.17318e-06
1.15599e-06
1.15583e-06
1.15577e-06
1.15404e-06
1.15393e-06
1.15392e-06
1.15398e-06
1.15558e-06
1.15584e-06
1.15577e-06
1.15362e-06
1.15057e-06
1.15057e-06
1.15057e-06
1.15057e-06
1.15348e-06
1.15415e-06
1.15404e-06
1.15057e-06
1.15057e-06
1.15057e-06
1.15057e-06
1.15057e-06
1.15057e-06
1.15391e-06
1.1558e-06
1.15599e-06
1.15393e-06
1.15057e-06
1.15057e-06
1.15057e-06
1.15057e-06
1.15057e-06
1.15057e-06
1.15377e-06
1.15552e-06
1.15583e-06
1.15392e-06
1.15057e-06
1.15057e-06
1.15057e-06
1.15057e-06
1.15057e-06
1.15057e-06
1.15372e-06
1.1543e-06
1.15398e-06
1.15057e-06
1.15057e-06
1.15057e-06
1.15057e-06
1.15057e-06
1.15057e-06
1.15382e-06
1.15564e-06
1.15558e-06
1.15348e-06
1.15057e-06
1.15057e-06
1.15057e-06
1.15057e-06
1.15326e-06
1.15406e-06
1.15587e-06
1.15584e-06
1.15415e-06
1.15391e-06
1.15377e-06
1.15372e-06
1.15382e-06
1.15406e-06
1.15553e-06
1.1558e-06
1.15552e-06
1.1543e-06
1.15564e-06
1.15587e-06
1.13868e-06
1.13852e-06
1.13846e-06
1.13673e-06
1.13662e-06
1.13661e-06
1.13667e-06
1.13827e-06
1.13853e-06
1.13846e-06
1.13631e-06
1.13326e-06
1.13326e-06
1.13326e-06
1.13326e-06
1.13617e-06
1.13684e-06
1.13673e-06
1.13326e-06
1.13326e-06
1.13326e-06
1.13326e-06
1.13326e-06
1.13326e-06
1.1366e-06
1.13849e-06
1.13868e-06
1.13662e-06
1.13326e-06
1.13326e-06
1.13326e-06
1.13326e-06
1.13326e-06
1.13326e-06
1.13646e-06
1.13821e-06
1.13851e-06
1.13661e-06
1.13326e-06
1.13326e-06
1.13326e-06
1.13326e-06
1.13326e-06
1.13326e-06
1.13641e-06
1.13699e-06
1.13667e-06
1.13326e-06
1.13326e-06
1.13326e-06
1.13326e-06
1.13326e-06
1.13326e-06
1.13651e-06
1.13833e-06
1.13827e-06
1.13617e-06
1.13326e-06
1.13326e-06
1.13326e-06
1.13326e-06
1.13595e-06
1.13675e-06
1.13856e-06
1.13853e-06
1.13684e-06
1.1366e-06
1.13646e-06
1.13641e-06
1.13651e-06
1.13675e-06
1.13822e-06
1.13849e-06
1.13821e-06
1.13699e-06
1.13833e-06
1.13856e-06
1.12137e-06
1.12121e-06
1.12115e-06
1.11942e-06
1.11931e-06
1.1193e-06
1.11936e-06
1.12096e-06
1.12122e-06
1.12115e-06
1.119e-06
1.11595e-06
1.11595e-06
1.11595e-06
1.11595e-06
1.11886e-06
1.11953e-06
1.11942e-06
1.11595e-06
1.11595e-06
1.11595e-06
1.11595e-06
1.11595e-06
1.11595e-06
1.11929e-06
1.12118e-06
1.12137e-06
1.11931e-06
1.11595e-06
1.11595e-06
1.11595e-06
1.11595e-06
1.11595e-06
1.11595e-06
1.11915e-06
1.1209e-06
1.1212e-06
1.1193e-06
1.11595e-06
1.11595e-06
1.11595e-06
1.11595e-06
1.11595e-06
1.11595e-06
1.1191e-06
1.11968e-06
1.11936e-06
1.11595e-06
1.11595e-06
1.11595e-06
1.11595e-06
1.11595e-06
1.11595e-06
1.1192e-06
1.12102e-06
1.12096e-06
1.11886e-06
1.11595e-06
1.11595e-06
1.11595e-06
1.11595e-06
1.11864e-06
1.11944e-06
1.12125e-06
1.12122e-06
1.11953e-06
1.11928e-06
1.11915e-06