/*--------------------------------*- C++ -*----------------------------------*\
| =========                 |                                                 |
| \\      /  F ield         | OpenFOAM: The Open Source CFD Toolbox           |
|  \\    /   O peration     | Version:  v2012                                 |
|   \\  /    A nd           | Website:  www.openfoam.com                      |
|    \\/     M anipulation  |                                                 |
\*---------------------------------------------------------------------------*/
FoamFile
{
    version     2.0;
    format      ascii;
    class       volScalarField;
    location    "7";
    object      p;
}
// * * * * * * * * * * * * * * * * * * * * * * * * * * * * * * * * * * * * * //

dimensions      [0 2 -2 0 0 0 0];


internalField   nonuniform List<scalar> 
244288
(
1.61306e-06
1.61338e-06
1.61333e-06
1.61315e-06
1.61307e-06
1.61318e-06
1.61335e-06
1.61338e-06
1.61338e-06
1.61314e-06
1.61284e-06
1.61273e-06
1.61287e-06
1.61318e-06
1.61339e-06
1.61333e-06
1.61314e-06
1.61269e-06
1.6123e-06
1.61216e-06
1.61234e-06
1.61275e-06
1.61318e-06
1.61333e-06
1.61315e-06
1.61284e-06
1.6123e-06
1.61186e-06
1.61172e-06
1.61191e-06
1.61237e-06
1.6129e-06
1.61317e-06
1.61306e-06
1.61307e-06
1.61273e-06
1.61216e-06
1.61172e-06
1.61156e-06
1.61176e-06
1.61223e-06
1.61279e-06
1.61308e-06
1.61318e-06
1.61287e-06
1.61234e-06
1.61191e-06
1.61176e-06
1.61195e-06
1.61241e-06
1.61293e-06
1.61319e-06
1.61335e-06
1.61318e-06
1.61275e-06
1.61237e-06
1.61223e-06
1.61241e-06
1.61281e-06
1.61322e-06
1.61335e-06
1.61339e-06
1.61318e-06
1.6129e-06
1.61279e-06
1.61293e-06
1.61322e-06
1.61339e-06
1.61333e-06
1.61317e-06
1.61308e-06
1.61319e-06
1.61335e-06
1.58673e-06
1.58628e-06
1.58593e-06
1.58448e-06
1.58437e-06
1.58438e-06
1.58441e-06
1.58584e-06
1.586e-06
1.58592e-06
1.58406e-06
1.58144e-06
1.58147e-06
1.58147e-06
1.58145e-06
1.58396e-06
1.58445e-06
1.58448e-06
1.58144e-06
1.58141e-06
1.58146e-06
1.58146e-06
1.58141e-06
1.58145e-06
1.58426e-06
1.58611e-06
1.58674e-06
1.58437e-06
1.58147e-06
1.58145e-06
1.58151e-06
1.58151e-06
1.58146e-06
1.58147e-06
1.58413e-06
1.58597e-06
1.58629e-06
1.58438e-06
1.58147e-06
1.58146e-06
1.58151e-06
1.58151e-06
1.58146e-06
1.58147e-06
1.58409e-06
1.58466e-06
1.58442e-06
1.58145e-06
1.58141e-06
1.58146e-06
1.58146e-06
1.58142e-06
1.58145e-06
1.58418e-06
1.58601e-06
1.58584e-06
1.58396e-06
1.58145e-06
1.58147e-06
1.58147e-06
1.58145e-06
1.58371e-06
1.58441e-06
1.58615e-06
1.586e-06
1.58445e-06
1.58426e-06
1.58413e-06
1.5841e-06
1.58419e-06
1.58442e-06
1.58612e-06
1.58611e-06
1.58597e-06
1.58467e-06
1.58601e-06
1.58615e-06
1.56972e-06
1.56957e-06
1.56952e-06
1.56786e-06
1.56776e-06
1.56773e-06
1.5678e-06
1.56936e-06
1.56961e-06
1.56952e-06
1.56745e-06
1.56456e-06
1.56455e-06
1.56455e-06
1.56456e-06
1.56737e-06
1.56796e-06
1.56786e-06
1.56456e-06
1.56454e-06
1.56454e-06
1.56454e-06
1.56454e-06
1.56456e-06
1.56775e-06
1.56959e-06
1.56972e-06
1.56776e-06
1.56455e-06
1.56454e-06
1.56454e-06
1.56454e-06
1.56454e-06
1.56455e-06
1.5676e-06
1.5693e-06
1.56958e-06
1.56773e-06
1.56455e-06
1.56454e-06
1.56454e-06
1.56454e-06
1.56454e-06
1.56456e-06
1.56755e-06
1.56807e-06
1.5678e-06
1.56456e-06
1.56454e-06
1.56454e-06
1.56454e-06
1.56454e-06
1.56456e-06
1.56766e-06
1.56945e-06
1.56936e-06
1.56737e-06
1.56456e-06
1.56456e-06
1.56456e-06
1.56456e-06
1.56717e-06
1.56789e-06
1.56965e-06
1.56961e-06
1.56796e-06
1.56775e-06
1.5676e-06
1.56755e-06
1.56767e-06
1.56789e-06
1.56954e-06
1.5696e-06
1.5693e-06
1.56808e-06
1.56945e-06
1.56965e-06
1.55299e-06
1.55284e-06
1.55277e-06
1.55109e-06
1.55099e-06
1.55097e-06
1.55104e-06
1.55261e-06
1.55286e-06
1.55277e-06
1.55065e-06
1.54775e-06
1.54775e-06
1.54775e-06
1.54775e-06
1.55059e-06
1.55122e-06
1.55109e-06
1.54775e-06
1.54775e-06
1.54774e-06
1.54774e-06
1.54775e-06
1.54775e-06
1.55103e-06
1.55285e-06
1.55299e-06
1.55099e-06
1.54775e-06
1.54775e-06
1.54774e-06
1.54774e-06
1.54775e-06
1.54775e-06
1.55092e-06
1.55257e-06
1.55284e-06
1.55097e-06
1.54775e-06
1.54775e-06
1.54774e-06
1.54774e-06
1.54775e-06
1.54775e-06
1.55088e-06
1.55135e-06
1.55104e-06
1.54775e-06
1.54775e-06
1.54775e-06
1.54775e-06
1.54775e-06
1.54775e-06
1.55097e-06
1.55272e-06
1.55262e-06
1.55059e-06
1.54775e-06
1.54775e-06
1.54775e-06
1.54775e-06
1.55046e-06
1.55116e-06
1.55291e-06
1.55286e-06
1.55122e-06
1.55103e-06
1.55092e-06
1.55088e-06
1.55097e-06
1.55116e-06
1.55276e-06
1.55286e-06
1.55257e-06
1.55135e-06
1.55272e-06
1.55291e-06
1.53621e-06
1.53607e-06
1.53599e-06
1.5343e-06
1.53421e-06
1.53417e-06
1.53426e-06
1.53583e-06
1.53608e-06
1.53599e-06
1.53385e-06
1.53095e-06
1.53095e-06
1.53095e-06
1.53095e-06
1.53379e-06
1.53443e-06
1.5343e-06
1.53095e-06
1.53095e-06
1.53095e-06
1.53095e-06
1.53095e-06
1.53095e-06
1.53425e-06
1.53608e-06
1.53621e-06
1.5342e-06
1.53095e-06
1.53095e-06
1.53095e-06
1.53095e-06
1.53095e-06
1.53095e-06
1.53416e-06
1.5358e-06
1.53607e-06
1.53418e-06
1.53095e-06
1.53095e-06
1.53095e-06
1.53095e-06
1.53095e-06
1.53095e-06
1.53412e-06
1.53458e-06
1.53426e-06
1.53095e-06
1.53095e-06
1.53095e-06
1.53095e-06
1.53095e-06
1.53095e-06
1.5342e-06
1.53594e-06
1.53583e-06
1.53379e-06
1.53095e-06
1.53095e-06
1.53095e-06
1.53095e-06
1.53369e-06
1.53438e-06
1.53613e-06
1.53608e-06
1.53444e-06
1.53426e-06
1.53416e-06
1.53412e-06
1.5342e-06
1.53438e-06
1.53598e-06
1.53608e-06
1.5358e-06
1.53458e-06
1.53594e-06
1.53613e-06
1.51942e-06
1.51928e-06
1.51919e-06
1.51751e-06
1.51741e-06
1.51738e-06
1.51746e-06
1.51904e-06
1.51929e-06
1.51919e-06
1.51705e-06
1.51416e-06
1.51416e-06
1.51416e-06
1.51416e-06
1.517e-06
1.51764e-06
1.51751e-06
1.51416e-06
1.51416e-06
1.51416e-06
1.51416e-06
1.51416e-06
1.51416e-06
1.51747e-06
1.51929e-06
1.51942e-06
1.51741e-06
1.51416e-06
1.51416e-06
1.51416e-06
1.51416e-06
1.51416e-06
1.51416e-06
1.51737e-06
1.51901e-06
1.51929e-06
1.51738e-06
1.51416e-06
1.51416e-06
1.51416e-06
1.51416e-06
1.51416e-06
1.51416e-06
1.51733e-06
1.5178e-06
1.51746e-06
1.51416e-06
1.51416e-06
1.51416e-06
1.51416e-06
1.51416e-06
1.51416e-06
1.51741e-06
1.51916e-06
1.51904e-06
1.517e-06
1.51416e-06
1.51416e-06
1.51416e-06
1.51416e-06
1.5169e-06
1.51759e-06
1.51934e-06
1.51929e-06
1.51764e-06
1.51747e-06
1.51737e-06
1.51733e-06
1.51741e-06
1.51759e-06
1.51918e-06
1.51929e-06
1.51901e-06
1.5178e-06
1.51916e-06
1.51934e-06
1.50263e-06
1.50249e-06
1.5024e-06
1.50072e-06
1.50062e-06
1.50059e-06
1.50067e-06
1.50225e-06
1.5025e-06
1.5024e-06
1.50026e-06
1.49736e-06
1.49736e-06
1.49736e-06
1.49736e-06
1.5002e-06
1.50085e-06
1.50072e-06
1.49736e-06
1.49736e-06
1.49736e-06
1.49736e-06
1.49736e-06
1.49736e-06
1.50067e-06
1.50249e-06
1.50263e-06
1.50062e-06
1.49736e-06
1.49736e-06
1.49736e-06
1.49736e-06
1.49736e-06
1.49736e-06
1.50058e-06
1.50222e-06
1.50249e-06
1.50059e-06
1.49736e-06
1.49736e-06
1.49736e-06
1.49736e-06
1.49736e-06
1.49736e-06
1.50054e-06
1.501e-06
1.50067e-06
1.49736e-06
1.49736e-06
1.49736e-06
1.49736e-06
1.49736e-06
1.49736e-06
1.50062e-06
1.50236e-06
1.50225e-06
1.50021e-06
1.49736e-06
1.49736e-06
1.49736e-06
1.49736e-06
1.50011e-06
1.5008e-06
1.50254e-06
1.5025e-06
1.50085e-06
1.50067e-06
1.50058e-06
1.50054e-06
1.50062e-06
1.5008e-06
1.50239e-06
1.50249e-06
1.50222e-06
1.501e-06
1.50236e-06
1.50254e-06
1.48584e-06
1.48569e-06
1.48561e-06
1.48393e-06
1.48383e-06
1.4838e-06
1.48388e-06
1.48546e-06
1.4857e-06
1.48561e-06
1.48347e-06
1.48057e-06
1.48057e-06
1.48057e-06
1.48057e-06
1.48341e-06
1.48406e-06
1.48393e-06
1.48057e-06
1.48057e-06
1.48057e-06
1.48057e-06
1.48057e-06
1.48057e-06
1.48388e-06
1.4857e-06
1.48584e-06
1.48383e-06
1.48057e-06
1.48057e-06
1.48057e-06
1.48057e-06
1.48057e-06
1.48057e-06
1.48379e-06
1.48542e-06
1.48569e-06
1.48379e-06
1.48057e-06
1.48057e-06
1.48057e-06
1.48057e-06
1.48057e-06
1.48057e-06
1.48375e-06
1.48421e-06
1.48388e-06
1.48057e-06
1.48057e-06
1.48057e-06
1.48057e-06
1.48057e-06
1.48057e-06
1.48383e-06
1.48557e-06
1.48546e-06
1.48341e-06
1.48057e-06
1.48057e-06
1.48057e-06
1.48057e-06
1.48332e-06
1.484e-06
1.48575e-06
1.4857e-06
1.48406e-06
1.48388e-06
1.48379e-06
1.48375e-06
1.48383e-06
1.484e-06
1.4856e-06
1.4857e-06
1.48543e-06
1.48421e-06
1.48557e-06
1.48575e-06
1.46905e-06
1.4689e-06
1.46882e-06
1.46713e-06
1.46703e-06
1.467e-06
1.46709e-06
1.46866e-06
1.46891e-06
1.46882e-06
1.46667e-06
1.46378e-06
1.46378e-06
1.46378e-06
1.46378e-06
1.46662e-06
1.46727e-06
1.46713e-06
1.46378e-06
1.46378e-06
1.46378e-06
1.46378e-06
1.46378e-06
1.46378e-06
1.46709e-06
1.46891e-06
1.46905e-06
1.46704e-06
1.46378e-06
1.46378e-06
1.46378e-06
1.46378e-06
1.46378e-06
1.46378e-06
1.46699e-06
1.46863e-06
1.4689e-06
1.467e-06
1.46378e-06
1.46378e-06
1.46378e-06
1.46378e-06
1.46378e-06
1.46378e-06
1.46695e-06
1.46742e-06
1.46708e-06
1.46378e-06
1.46378e-06
1.46378e-06
1.46378e-06
1.46378e-06
1.46378e-06
1.46704e-06
1.46878e-06
1.46866e-06
1.46662e-06
1.46378e-06
1.46378e-06
1.46378e-06
1.46378e-06
1.46652e-06
1.46721e-06
1.46896e-06
1.46891e-06
1.46727e-06
1.46709e-06
1.46699e-06
1.46695e-06
1.46704e-06
1.46721e-06
1.46881e-06
1.46891e-06
1.46863e-06
1.46742e-06
1.46878e-06
1.46896e-06
1.45225e-06
1.45211e-06
1.45202e-06
1.45034e-06
1.45024e-06
1.45021e-06
1.45029e-06
1.45187e-06
1.45212e-06
1.45202e-06
1.44988e-06
1.44698e-06
1.44698e-06
1.44698e-06
1.44698e-06
1.44983e-06
1.45047e-06
1.45034e-06
1.44698e-06
1.44698e-06
1.44698e-06
1.44698e-06
1.44698e-06
1.44698e-06
1.4503e-06
1.45212e-06
1.45225e-06
1.45024e-06
1.44698e-06
1.44698e-06
1.44698e-06
1.44698e-06
1.44698e-06
1.44698e-06
1.4502e-06
1.45184e-06
1.45211e-06
1.45021e-06
1.44698e-06
1.44698e-06
1.44698e-06
1.44698e-06
1.44698e-06
1.44698e-06
1.45016e-06
1.45063e-06
1.45029e-06
1.44698e-06
1.44698e-06
1.44698e-06
1.44698e-06
1.44698e-06
1.44698e-06
1.45024e-06
1.45198e-06
1.45187e-06
1.44983e-06
1.44698e-06
1.44698e-06
1.44698e-06
1.44698e-06
1.44973e-06
1.45042e-06
1.45217e-06
1.45212e-06
1.45047e-06
1.4503e-06
1.4502e-06
1.45016e-06
1.45024e-06
1.45042e-06
1.45201e-06
1.45212e-06
1.45184e-06
1.45063e-06
1.45199e-06
1.45217e-06
1.43546e-06
1.43532e-06
1.43523e-06
1.43355e-06
1.43345e-06
1.43342e-06
1.4335e-06
1.43508e-06
1.43532e-06
1.43523e-06
1.43309e-06
1.43019e-06
1.43019e-06
1.43019e-06
1.43019e-06
1.43303e-06
1.43368e-06
1.43355e-06
1.43019e-06
1.43019e-06
1.43019e-06
1.43019e-06
1.43019e-06
1.43019e-06
1.4335e-06
1.43532e-06
1.43546e-06
1.43345e-06
1.43019e-06
1.43019e-06
1.43019e-06
1.43019e-06
1.43019e-06
1.43019e-06
1.43341e-06
1.43505e-06
1.43531e-06
1.43341e-06
1.43019e-06
1.43019e-06
1.43019e-06
1.43019e-06
1.43019e-06
1.43019e-06
1.43337e-06
1.43383e-06
1.4335e-06
1.43019e-06
1.43019e-06
1.43019e-06
1.43019e-06
1.43019e-06
1.43019e-06
1.43345e-06
1.43519e-06
1.43508e-06
1.43303e-06
1.43019e-06
1.43019e-06
1.43019e-06
1.43019e-06
1.43294e-06
1.43363e-06
1.43537e-06
1.43532e-06
1.43368e-06
1.4335e-06
1.43341e-06
1.43337e-06
1.43345e-06
1.43362e-06
1.43522e-06
1.43532e-06
1.43505e-06
1.43383e-06
1.43519e-06
1.43537e-06
1.41867e-06
1.41852e-06
1.41844e-06
1.41676e-06
1.41666e-06
1.41662e-06
1.41671e-06
1.41829e-06
1.41853e-06
1.41844e-06
1.4163e-06
1.4134e-06
1.4134e-06
1.4134e-06
1.4134e-06
1.41624e-06
1.41689e-06
1.41676e-06
1.4134e-06
1.4134e-06
1.4134e-06
1.4134e-06
1.4134e-06
1.4134e-06
1.41671e-06
1.41853e-06
1.41867e-06
1.41666e-06
1.4134e-06
1.4134e-06
1.4134e-06
1.4134e-06
1.4134e-06
1.4134e-06
1.41662e-06
1.41825e-06
1.41852e-06
1.41662e-06
1.4134e-06
1.4134e-06
1.4134e-06
1.4134e-06
1.4134e-06
1.4134e-06
1.41658e-06
1.41704e-06
1.41671e-06
1.4134e-06
1.4134e-06
1.4134e-06
1.4134e-06
1.4134e-06
1.4134e-06
1.41666e-06
1.4184e-06
1.41829e-06
1.41624e-06
1.4134e-06
1.4134e-06
1.4134e-06
1.4134e-06
1.41614e-06
1.41683e-06
1.41858e-06
1.41853e-06
1.41689e-06
1.41671e-06
1.41662e-06
1.41658e-06
1.41666e-06
1.41683e-06
1.41843e-06
1.41853e-06
1.41825e-06
1.41704e-06
1.4184e-06
1.41858e-06
1.40188e-06
1.40173e-06
1.40165e-06
1.39996e-06
1.39986e-06
1.39983e-06
1.39991e-06
1.40149e-06
1.40174e-06
1.40165e-06
1.3995e-06
1.3966e-06
1.3966e-06
1.3966e-06
1.3966e-06
1.39945e-06
1.4001e-06
1.39996e-06
1.3966e-06
1.3966e-06
1.3966e-06
1.3966e-06
1.3966e-06
1.3966e-06
1.39992e-06
1.40174e-06
1.40188e-06
1.39986e-06
1.3966e-06
1.3966e-06
1.3966e-06
1.3966e-06
1.3966e-06
1.3966e-06
1.39982e-06
1.40146e-06
1.40173e-06
1.39983e-06
1.3966e-06
1.3966e-06
1.3966e-06
1.3966e-06
1.3966e-06
1.3966e-06
1.39978e-06
1.40025e-06
1.39992e-06
1.3966e-06
1.3966e-06
1.3966e-06
1.3966e-06
1.3966e-06
1.3966e-06
1.39987e-06
1.40161e-06
1.40149e-06
1.39945e-06
1.3966e-06
1.3966e-06
1.3966e-06
1.3966e-06
1.39935e-06
1.40004e-06
1.40179e-06
1.40174e-06
1.4001e-06
1.39992e-06
1.39982e-06
1.39978e-06
1.39987e-06
1.40004e-06
1.40163e-06
1.40174e-06
1.40146e-06
1.40025e-06
1.40161e-06
1.40179e-06
1.38508e-06
1.38494e-06
1.38485e-06
1.38317e-06
1.38307e-06
1.38304e-06
1.38312e-06
1.3847e-06
1.38495e-06
1.38485e-06
1.38271e-06
1.37981e-06
1.37981e-06
1.37981e-06
1.37981e-06
1.38265e-06
1.3833e-06
1.38317e-06
1.37981e-06
1.37981e-06
1.37981e-06
1.37981e-06
1.37981e-06
1.37981e-06
1.38312e-06
1.38494e-06
1.38509e-06
1.38307e-06
1.37981e-06
1.37981e-06
1.37981e-06
1.37981e-06
1.37981e-06
1.37981e-06
1.38303e-06
1.38467e-06
1.38494e-06
1.38304e-06
1.37981e-06
1.37981e-06
1.37981e-06
1.37981e-06
1.37981e-06
1.37981e-06
1.38299e-06
1.38345e-06
1.38312e-06
1.37981e-06
1.37981e-06
1.37981e-06
1.37981e-06
1.37981e-06
1.37981e-06
1.38307e-06
1.38481e-06
1.3847e-06
1.38265e-06
1.37981e-06
1.37981e-06
1.37981e-06
1.37981e-06
1.38256e-06
1.38325e-06
1.38499e-06
1.38495e-06
1.3833e-06
1.38312e-06
1.38303e-06
1.38299e-06
1.38307e-06
1.38325e-06
1.38484e-06
1.38494e-06
1.38467e-06
1.38345e-06
1.38481e-06
1.38499e-06
1.36829e-06
1.36814e-06
1.36806e-06
1.36638e-06
1.36628e-06
1.36624e-06
1.36633e-06
1.36791e-06
1.36815e-06
1.36806e-06
1.36592e-06
1.36302e-06
1.36302e-06
1.36302e-06
1.36302e-06
1.36586e-06
1.36651e-06
1.36638e-06
1.36302e-06
1.36302e-06
1.36302e-06
1.36302e-06
1.36302e-06
1.36302e-06
1.36633e-06
1.36815e-06
1.36829e-06
1.36628e-06
1.36302e-06
1.36302e-06
1.36302e-06
1.36302e-06
1.36302e-06
1.36302e-06
1.36624e-06
1.36788e-06
1.36816e-06
1.36624e-06
1.36302e-06
1.36302e-06
1.36302e-06
1.36302e-06
1.36302e-06
1.36302e-06
1.3662e-06
1.36666e-06
1.36633e-06
1.36302e-06
1.36302e-06
1.36302e-06
1.36302e-06
1.36302e-06
1.36302e-06
1.36628e-06
1.36802e-06
1.36791e-06
1.36586e-06
1.36302e-06
1.36302e-06
1.36302e-06
1.36302e-06
1.36577e-06
1.36645e-06
1.3682e-06
1.36815e-06
1.36651e-06
1.36633e-06
1.36624e-06
1.3662e-06
1.36628e-06
1.36645e-06
1.36805e-06
1.36815e-06
1.36788e-06
1.36666e-06
1.36802e-06
1.3682e-06
1.3515e-06
1.35135e-06
1.35127e-06
1.34958e-06
1.34948e-06
1.34945e-06
1.34954e-06
1.35111e-06
1.35136e-06
1.35127e-06
1.34912e-06
1.34623e-06
1.34623e-06
1.34623e-06
1.34623e-06
1.34907e-06
1.34972e-06
1.34958e-06
1.34623e-06
1.34623e-06
1.34623e-06
1.34623e-06
1.34623e-06
1.34623e-06
1.34954e-06
1.35136e-06
1.3515e-06
1.34948e-06
1.34623e-06
1.34623e-06
1.34623e-06
1.34623e-06
1.34623e-06
1.34623e-06
1.34944e-06
1.35108e-06
1.35135e-06
1.34945e-06
1.34623e-06
1.34623e-06
1.34623e-06
1.34623e-06
1.34623e-06
1.34623e-06
1.3494e-06
1.34987e-06
1.34954e-06
1.34623e-06
1.34623e-06
1.34623e-06
1.34623e-06
1.34623e-06
1.34623e-06
1.34949e-06
1.35123e-06
1.35111e-06
1.34907e-06
1.34623e-06
1.34623e-06
1.34623e-06
1.34623e-06
1.34897e-06
1.34966e-06
1.35141e-06
1.35136e-06
1.34972e-06
1.34954e-06
1.34944e-06
1.3494e-06
1.34949e-06
1.34966e-06
1.35125e-06
1.35136e-06
1.35108e-06
1.34987e-06
1.35123e-06
1.35141e-06
1.3347e-06
1.33456e-06
1.33447e-06
1.33279e-06
1.33269e-06
1.33266e-06
1.33274e-06
1.33432e-06
1.33457e-06
1.33447e-06
1.33233e-06
1.32943e-06
1.32943e-06
1.32943e-06
1.32943e-06
1.33228e-06
1.33292e-06
1.33279e-06
1.32943e-06
1.32943e-06
1.32943e-06
1.32943e-06
1.32943e-06
1.32943e-06
1.33275e-06
1.33457e-06
1.3347e-06
1.33269e-06
1.32943e-06
1.32943e-06
1.32943e-06
1.32943e-06
1.32943e-06
1.32943e-06
1.33265e-06
1.33429e-06
1.33456e-06
1.33266e-06
1.32943e-06
1.32943e-06
1.32943e-06
1.32943e-06
1.32943e-06
1.32943e-06
1.33261e-06
1.33308e-06
1.33274e-06
1.32943e-06
1.32943e-06
1.32943e-06
1.32943e-06
1.32943e-06
1.32943e-06
1.33269e-06
1.33444e-06
1.33432e-06
1.33228e-06
1.32943e-06
1.32943e-06
1.32943e-06
1.32943e-06
1.33218e-06
1.33287e-06
1.33462e-06
1.33457e-06
1.33292e-06
1.33274e-06
1.33265e-06
1.33261e-06
1.33269e-06
1.33287e-06
1.33446e-06
1.33457e-06
1.33429e-06
1.33308e-06
1.33444e-06
1.33462e-06
1.31791e-06
1.31777e-06
1.31768e-06
1.316e-06
1.3159e-06
1.31587e-06
1.31595e-06
1.31753e-06
1.31777e-06
1.31768e-06
1.31554e-06
1.31264e-06
1.31264e-06
1.31264e-06
1.31264e-06
1.31548e-06
1.31613e-06
1.316e-06
1.31264e-06
1.31264e-06
1.31264e-06
1.31264e-06
1.31264e-06
1.31264e-06
1.31595e-06
1.31777e-06
1.31791e-06
1.3159e-06
1.31264e-06
1.31264e-06
1.31264e-06
1.31264e-06
1.31264e-06
1.31264e-06
1.31586e-06
1.3175e-06
1.31777e-06
1.31587e-06
1.31264e-06
1.31264e-06
1.31264e-06
1.31264e-06
1.31264e-06
1.31264e-06
1.31582e-06
1.31628e-06
1.31595e-06
1.31264e-06
1.31264e-06
1.31264e-06
1.31264e-06
1.31264e-06
1.31264e-06
1.3159e-06
1.31764e-06
1.31753e-06
1.31548e-06
1.31264e-06
1.31264e-06
1.31264e-06
1.31264e-06
1.31539e-06
1.31608e-06
1.31782e-06
1.31778e-06
1.31613e-06
1.31595e-06
1.31586e-06
1.31582e-06
1.3159e-06
1.31607e-06
1.31767e-06
1.31777e-06
1.3175e-06
1.31628e-06
1.31764e-06
1.31782e-06
1.30112e-06
1.30097e-06
1.30089e-06
1.2992e-06
1.29911e-06
1.29907e-06
1.29916e-06
1.30074e-06
1.30098e-06
1.30089e-06
1.29875e-06
1.29585e-06
1.29585e-06
1.29585e-06
1.29585e-06
1.29869e-06
1.29934e-06
1.29921e-06
1.29585e-06
1.29585e-06
1.29585e-06
1.29585e-06
1.29585e-06
1.29585e-06
1.29916e-06
1.30098e-06
1.30112e-06
1.29911e-06
1.29585e-06
1.29585e-06
1.29585e-06
1.29585e-06
1.29585e-06
1.29585e-06
1.29907e-06
1.3007e-06
1.30097e-06
1.29907e-06
1.29585e-06
1.29585e-06
1.29585e-06
1.29585e-06
1.29585e-06
1.29585e-06
1.29903e-06
1.29949e-06
1.29916e-06
1.29585e-06
1.29585e-06
1.29585e-06
1.29585e-06
1.29585e-06
1.29585e-06
1.29911e-06
1.30085e-06
1.30074e-06
1.29869e-06
1.29585e-06
1.29585e-06
1.29585e-06
1.29585e-06
1.29859e-06
1.29928e-06
1.30103e-06
1.30098e-06
1.29934e-06
1.29916e-06
1.29906e-06
1.29903e-06
1.29911e-06
1.29928e-06
1.30088e-06
1.30098e-06
1.30071e-06
1.29949e-06
1.30085e-06
1.30103e-06
1.28433e-06
1.28418e-06
1.2841e-06
1.28241e-06
1.28231e-06
1.28228e-06
1.28236e-06
1.28394e-06
1.28419e-06
1.2841e-06
1.28195e-06
1.27905e-06
1.27905e-06
1.27905e-06
1.27905e-06
1.2819e-06
1.28255e-06
1.28241e-06
1.27905e-06
1.27905e-06
1.27905e-06
1.27905e-06
1.27905e-06
1.27905e-06
1.28237e-06
1.28419e-06
1.28433e-06
1.28231e-06
1.27905e-06
1.27905e-06
1.27905e-06
1.27905e-06
1.27905e-06
1.27905e-06
1.28227e-06
1.28391e-06
1.28418e-06
1.28228e-06
1.27905e-06
1.27905e-06
1.27905e-06
1.27905e-06
1.27905e-06
1.27905e-06
1.28223e-06
1.2827e-06
1.28236e-06
1.27905e-06
1.27905e-06
1.27905e-06
1.27905e-06
1.27905e-06
1.27905e-06
1.28232e-06
1.28406e-06
1.28394e-06
1.2819e-06
1.27905e-06
1.27905e-06
1.27905e-06
1.27905e-06
1.2818e-06
1.28249e-06
1.28424e-06
1.28419e-06
1.28255e-06
1.28237e-06
1.28227e-06
1.28223e-06
1.28232e-06
1.28249e-06
1.28408e-06
1.28419e-06
1.28391e-06
1.2827e-06
1.28406e-06
1.28424e-06
1.26753e-06
1.26739e-06
1.2673e-06
1.26562e-06
1.26552e-06
1.26549e-06
1.26557e-06
1.26715e-06
1.2674e-06
1.2673e-06
1.26516e-06
1.26226e-06
1.26226e-06
1.26226e-06
1.26226e-06
1.2651e-06
1.26575e-06
1.26562e-06
1.26226e-06
1.26226e-06
1.26226e-06
1.26226e-06
1.26226e-06
1.26226e-06
1.26557e-06
1.26739e-06
1.26753e-06
1.26552e-06
1.26226e-06
1.26226e-06
1.26226e-06
1.26226e-06
1.26226e-06
1.26226e-06
1.26548e-06
1.26712e-06
1.26739e-06
1.26549e-06
1.26226e-06
1.26226e-06
1.26226e-06
1.26226e-06
1.26226e-06
1.26226e-06
1.26544e-06
1.2659e-06
1.26557e-06
1.26226e-06
1.26226e-06
1.26226e-06
1.26226e-06
1.26226e-06
1.26226e-06
1.26552e-06
1.26726e-06
1.26715e-06
1.2651e-06
1.26226e-06
1.26226e-06
1.26226e-06
1.26226e-06
1.26501e-06
1.2657e-06
1.26744e-06
1.2674e-06
1.26575e-06
1.26557e-06
1.26548e-06
1.26544e-06
1.26552e-06
1.2657e-06
1.26729e-06
1.26739e-06
1.26712e-06
1.2659e-06
1.26726e-06
1.26744e-06
1.25074e-06
1.25059e-06
1.25051e-06
1.24883e-06
1.24873e-06
1.2487e-06
1.24878e-06
1.25036e-06
1.2506e-06
1.25051e-06
1.24837e-06
1.24547e-06
1.24547e-06
1.24547e-06
1.24547e-06
1.24831e-06
1.24896e-06
1.24883e-06
1.24547e-06
1.24547e-06
1.24547e-06
1.24547e-06
1.24547e-06
1.24547e-06
1.24878e-06
1.2506e-06
1.25074e-06
1.24873e-06
1.24547e-06
1.24547e-06
1.24547e-06
1.24547e-06
1.24547e-06
1.24547e-06
1.24869e-06
1.25033e-06
1.25059e-06
1.2487e-06
1.24547e-06
1.24547e-06
1.24547e-06
1.24547e-06
1.24547e-06
1.24547e-06
1.24865e-06
1.24911e-06
1.24878e-06
1.24547e-06
1.24547e-06
1.24547e-06
1.24547e-06
1.24547e-06
1.24547e-06
1.24873e-06
1.25047e-06
1.25036e-06
1.24831e-06
1.24547e-06
1.24547e-06
1.24547e-06
1.24547e-06
1.24822e-06
1.2489e-06
1.25065e-06
1.2506e-06
1.24896e-06
1.24878e-06
1.24869e-06
1.24865e-06
1.24873e-06
1.2489e-06
1.2505e-06
1.2506e-06
1.25033e-06
1.24911e-06
1.25047e-06
1.25065e-06
1.23395e-06
1.2338e-06
1.23372e-06
1.23203e-06
1.23193e-06
1.2319e-06
1.23199e-06
1.23356e-06
1.23381e-06
1.23372e-06
1.23157e-06
1.22868e-06
1.22868e-06
1.22868e-06
1.22868e-06
1.23152e-06
1.23217e-06
1.23203e-06
1.22868e-06
1.22868e-06
1.22868e-06
1.22868e-06
1.22868e-06
1.22868e-06
1.23199e-06
1.23381e-06
1.23395e-06
1.23193e-06
1.22868e-06
1.22868e-06
1.22868e-06
1.22868e-06
1.22868e-06
1.22868e-06
1.23189e-06
1.23353e-06
1.2338e-06
1.2319e-06
1.22868e-06
1.22868e-06
1.22868e-06
1.22868e-06
1.22868e-06
1.22868e-06
1.23186e-06
1.23232e-06
1.23199e-06
1.22868e-06
1.22868e-06
1.22868e-06
1.22868e-06
1.22868e-06
1.22868e-06
1.23194e-06
1.23368e-06
1.23356e-06
1.23152e-06
1.22868e-06
1.22868e-06
1.22868e-06
1.22868e-06
1.23142e-06
1.23211e-06
1.23386e-06
1.23381e-06
1.23217e-06
1.23199e-06
1.23189e-06
1.23186e-06
1.23194e-06
1.23211e-06
1.2337e-06
1.23381e-06
1.23353e-06
1.23232e-06
1.23368e-06
1.23386e-06
1.21715e-06
1.21701e-06
1.21692e-06
1.21524e-06
1.21514e-06
1.21511e-06
1.21519e-06
1.21677e-06
1.21702e-06
1.21692e-06
1.21478e-06
1.21188e-06
1.21188e-06
1.21188e-06
1.21188e-06
1.21473e-06
1.21537e-06
1.21524e-06
1.21188e-06
1.21188e-06
1.21188e-06
1.21188e-06
1.21188e-06
1.21188e-06
1.2152e-06
1.21702e-06
1.21715e-06
1.21514e-06
1.21188e-06
1.21188e-06
1.21188e-06
1.21188e-06
1.21188e-06
1.21188e-06
1.2151e-06
1.21674e-06
1.21701e-06
1.21511e-06
1.21188e-06
1.21188e-06
1.21188e-06
1.21188e-06
1.21188e-06
1.21188e-06
1.21506e-06
1.21553e-06
1.21519e-06
1.21188e-06
1.21188e-06
1.21188e-06
1.21188e-06
1.21188e-06
1.21188e-06
1.21514e-06
1.21689e-06
1.21677e-06
1.21473e-06
1.21188e-06
1.21188e-06
1.21188e-06
1.21188e-06
1.21463e-06
1.21532e-06
1.21707e-06
1.21702e-06
1.21537e-06
1.2152e-06
1.2151e-06
1.21506e-06
1.21514e-06
1.21532e-06
1.21691e-06
1.21702e-06
1.21674e-06
1.21553e-06
1.21688e-06
1.21707e-06
1.20036e-06
1.20022e-06
1.20013e-06
1.19845e-06
1.19835e-06
1.19832e-06
1.1984e-06
1.19998e-06
1.20022e-06
1.20013e-06
1.19799e-06
1.19509e-06
1.19509e-06
1.19509e-06
1.19509e-06
1.19793e-06
1.19858e-06
1.19845e-06
1.19509e-06
1.19509e-06
1.19509e-06
1.19509e-06
1.19509e-06
1.19509e-06
1.1984e-06
1.20022e-06
1.20036e-06
1.19835e-06
1.19509e-06
1.19509e-06
1.19509e-06
1.19509e-06
1.19509e-06
1.19509e-06
1.19831e-06
1.19995e-06
1.20022e-06
1.19832e-06
1.19509e-06
1.19509e-06
1.19509e-06
1.19509e-06
1.19509e-06
1.19509e-06
1.19827e-06
1.19873e-06
1.1984e-06
1.19509e-06
1.19509e-06
1.19509e-06
1.19509e-06
1.19509e-06
1.19509e-06
1.19835e-06
1.20009e-06
1.19998e-06
1.19793e-06
1.19509e-06
1.19509e-06
1.19509e-06
1.19509e-06
1.19784e-06
1.19853e-06
1.20027e-06
1.20022e-06
1.19858e-06
1.1984e-06
1.19831e-06
1.19827e-06
1.19835e-06
1.19852e-06
1.20012e-06
1.20022e-06
1.19994e-06
1.19874e-06
1.20009e-06
1.20027e-06
1.18357e-06
1.18342e-06
1.18334e-06
1.18165e-06
1.18156e-06
1.18152e-06
1.18161e-06
1.18319e-06
1.18343e-06
1.18334e-06
1.1812e-06
1.1783e-06
1.1783e-06
1.1783e-06
1.1783e-06
1.18114e-06
1.18179e-06
1.18165e-06
1.1783e-06
1.1783e-06
1.1783e-06
1.1783e-06
1.1783e-06
1.1783e-06
1.18161e-06
1.18343e-06
1.18357e-06
1.18156e-06
1.1783e-06
1.1783e-06
1.1783e-06
1.1783e-06
1.1783e-06
1.1783e-06
1.18152e-06
1.18315e-06
1.18342e-06
1.18152e-06
1.1783e-06
1.1783e-06
1.1783e-06
1.1783e-06
1.1783e-06
1.1783e-06
1.18148e-06
1.18194e-06
1.18161e-06
1.1783e-06
1.1783e-06
1.1783e-06
1.1783e-06
1.1783e-06
1.1783e-06
1.18156e-06
1.1833e-06
1.18319e-06
1.18114e-06
1.1783e-06
1.1783e-06
1.1783e-06
1.1783e-06
1.18104e-06
1.18173e-06
1.18348e-06
1.18343e-06
1.18179e-06
1.18161e-06
1.18152e-06
1.18148e-06
1.18156e-06
1.18173e-06
1.18333e-06
1.18343e-06
1.18315e-06
1.18194e-06
1.1833e-06
1.18348e-06
1.16678e-06
1.16663e-06
1.16655e-06
1.16486e-06
1.16476e-06
1.16473e-06
1.16481e-06
1.16639e-06
1.16664e-06
1.16655e-06
1.1644e-06
1.1615e-06
1.1615e-06
1.1615e-06
1.1615e-06
1.16435e-06
1.165e-06
1.16486e-06
1.1615e-06
1.1615e-06
1.1615e-06
1.1615e-06
1.1615e-06
1.1615e-06
1.16482e-06
1.16664e-06
1.16678e-06
1.16476e-06
1.1615e-06
1.1615e-06
1.1615e-06
1.1615e-06
1.1615e-06
1.1615e-06
1.16472e-06
1.16636e-06
1.16663e-06
1.16473e-06
1.1615e-06
1.1615e-06
1.1615e-06
1.1615e-06
1.1615e-06
1.1615e-06
1.16468e-06
1.16515e-06
1.16481e-06
1.1615e-06
1.1615e-06
1.1615e-06
1.1615e-06
1.1615e-06
1.1615e-06
1.16477e-06
1.16651e-06
1.16639e-06
1.16435e-06
1.1615e-06
1.1615e-06
1.1615e-06
1.1615e-06
1.16425e-06
1.16494e-06
1.16669e-06
1.16664e-06
1.165e-06
1.16482e-06
1.16472e-06
1.16468e-06
1.16477e-06
1.16494e-06
1.16653e-06
1.16664e-06
1.16636e-06
1.16515e-06
1.16651e-06
1.16669e-06
1.14998e-06
1.14984e-06
1.14975e-06
1.14807e-06
1.14797e-06
1.14794e-06
1.14802e-06
1.1496e-06
1.14985e-06
1.14975e-06
1.14761e-06
1.14471e-06
1.14471e-06
1.14471e-06
1.14471e-06
1.14756e-06
1.1482e-06
1.14807e-06
1.14471e-06
1.14471e-06
1.14471e-06
1.14471e-06
1.14471e-06
1.14471e-06
1.14802e-06
1.14984e-06
1.14998e-06
1.14797e-06
1.14471e-06
1.14471e-06
1.14471e-06
1.14471e-06
1.14471e-06
1.14471e-06
1.14793e-06
1.14957e-06
1.14984e-06
1.14794e-06
1.14471e-06
1.14471e-06
1.14471e-06
1.14471e-06
1.14471e-06
1.14471e-06
1.14789e-06
1.14835e-06
1.14802e-06
1.14471e-06
1.14471e-06
1.14471e-06
1.14471e-06
1.14471e-06
1.14471e-06
1.14797e-06
1.14971e-06
1.1496e-06
1.14755e-06
1.14471e-06
1.14471e-06
1.14471e-06
1.14471e-06
1.14746e-06
1.14815e-06
1.14989e-06
1.14985e-06
1.1482e-06
1.14802e-06
1.14793e-06
1.14789e-06
1.14797e-06
1.14815e-06
1.14974e-06
1.14984e-06
1.14957e-06
1.14835e-06
1.14971e-06
1.14989e-06
1.13319e-06
1.13304e-06
1.13296e-06
1.13128e-06
1.13118e-06
1.13115e-06
1.13123e-06
1.13281e-06
1.13305e-06
1.13296e-06
1.13082e-06
1.12792e-06
1.12792e-06
1.12792e-06
1.12792e-06
1.13076e-06
1.13141e-06
1.13128e-06
1.12792e-06
1.12792e-06
1.12792e-06
1.12792e-06
1.12792e-06
1.12792e-06
1.13123e-06
1.13305e-06
1.13319e-06
1.13118e-06
1.12792e-06
1.12792e-06
1.12792e-06
1.12792e-06
1.12792e-06
1.12792e-06
1.13114e-06
1.13278e-06
1.13304e-06
1.13115e-06
1.12792e-06
1.12792e-06
1.12792e-06
1.12792e-06
1.12792e-06
1.12792e-06
1.1311e-06
1.13156e-06
1.13123e-06
1.12792e-06
1.12792e-06
1.12792e-06
1.12792e-06
1.12792e-06
1.12792e-06
1.13118e-06
1.13292e-06
1.13281e-06
1.13076e-06
1.12792e-06
1.12792e-06
1.12792e-06
1.12792e-06
1.13067e-06
1.13135e-06
1.1331e-06
1.13305e-06
1.13141e-06
1.13123e-06
1.13114e-06
1.1311e-06
1.13118e-06
1.13135e-06
1.13295e-06
1.13305e-06
1.13278e-06
1.13156e-06
1.13292e-06
1.1331e-06
1.1164e-06
1.11625e-06
1.11617e-06
1.11448e-06
1.11438e-06
1.11435e-06
1.11444e-06
1.11601e-06
1.11626e-06
1.11617e-06
1.11402e-06
1.11113e-06
1.11113e-06
1.11113e-06
1.11113e-06
1.11397e-06
1.11462e-06
1.11448e-06
1.11113e-06
1.11113e-06
1.11113e-06
1.11113e-06
1.11113e-06
1.11113e-06
1.11444e-06
1.11626e-06
1.1164e-06
1.11439e-06
1.11113e-06
1.11113e-06
1.11113e-06
1.11113e-06
1.11113e-06
1.11113e-06
1.11434e-06
1.11598e-06
1.11625e-06
1.11435e-06
1.11113e-06
1.11113e-06
1.11113e-06
1.11113e-06
1.11113e-06
1.11113e-06
1.11431e-06
1.11477e-06
1.11443e-06
1.11113e-06
1.11113e-06
1.11113e-06
1.11113e-06
1.11113e-06
1.11113e-06
1.11439e-06
1.11613e-06
1.11601e-06
1.11397e-06
1.11113e-06
1.11113e-06
1.11113e-06
1.11113e-06
1.11387e-06
1.11456e-06
1.11631e-06
1.11626e-06
1.11462e-06
1.11444e-06
1.11434e-06
1.11431e-06
1.11439e-06
1.11456e-06
1.11615e-06
1.11626e-06
1.11598e-06
1.11477e-06
1.11613e-06
1.11631e-06
1.0996e-06
1.09946e-06
1.09937e-06
1.09769e-06
1.09759e-06
1.09756e-06
1.09764e-06
1.09922e-06
1.09947e-06
1.09937e-06
1.09723e-06
1.09433e-06
1.09433e-06
1.09433e-06
1.09433e-06
1.09718e-06
1.09782e-06
1.09769e-06
1.09433e-06
1.09433e-06
1.09433e-06
1.09433e-06
1.09433e-06
1.09433e-06
1.09765e-06
1.09947e-06
1.0996e-06
1.09759e-06
1.09433e-06
1.09433e-06
1.09433e-06
1.09433e-06
1.09433e-06
1.09433e-06
1.09755e-06
1.09919e-06
1.09946e-06
1.09756e-06
1.09433e-06
1.09433e-06
1.09433e-06
1.09433e-06
1.09433e-06
1.09433e-06
1.09751e-06
1.09798e-06
1.09764e-06
1.09433e-06
1.09433e-06
1.09433e-06
1.09433e-06
1.09433e-06
1.09433e-06
1.09759e-06
1.09933e-06
1.09922e-06
1.09718e-06
1.09433e-06
1.09433e-06
1.09433e-06
1.09433e-06
1.09708e-06
1.09777e-06
1.09952e-06
1.09947e-06
1.09782e-06
1.09764e-06
1.09755e-06
1.09751e-06
1.09759e-06
1.09777e-06
1.09936e-06
1.09947e-06
1.09919e-06
1.09798e-06
1.09934e-06
1.09952e-06
1.08281e-06
1.08267e-06
1.08258e-06
1.0809e-06
1.0808e-06
1.08077e-06
1.08085e-06
1.08243e-06
1.08267e-06
1.08258e-06
1.08044e-06
1.07754e-06
1.07754e-06
1.07754e-06
1.07754e-06
1.08038e-06
1.08103e-06
1.0809e-06
1.07754e-06
1.07754e-06
1.07754e-06
1.07754e-06
1.07754e-06
1.07754e-06
1.08085e-06
1.08267e-06
1.08281e-06
1.0808e-06
1.07754e-06
1.07754e-06
1.07754e-06
1.07754e-06
1.07754e-06
1.07754e-06
1.08076e-06
1.0824e-06
1.08267e-06
1.08077e-06
1.07754e-06
1.07754e-06
1.07754e-06
1.07754e-06
1.07754e-06
1.07754e-06
1.08072e-06
1.08118e-06
1.08085e-06
1.07754e-06
1.07754e-06
1.07754e-06
1.07754e-06
1.07754e-06
1.07754e-06
1.0808e-06
1.08254e-06
1.08243e-06
1.08038e-06
1.07754e-06
1.07754e-06
1.07754e-06
1.07754e-06
1.08029e-06
1.08098e-06
1.08272e-06
1.08267e-06
1.08103e-06
1.08085e-06
1.08076e-06
1.08072e-06