/*--------------------------------*- C++ -*----------------------------------*\
| =========                 |                                                 |
| \\      /  F ield         | OpenFOAM: The Open Source CFD Toolbox           |
|  \\    /   O peration     | Version:  v2012                                 |
|   \\  /    A nd           | Website:  www.openfoam.com                      |
|    \\/     M anipulation  |                                                 |
\*---------------------------------------------------------------------------*/
FoamFile
{
    version     2.0;
    format      ascii;
    class       volScalarField;
    location    "0.12";
    object      p;
}
// * * * * * * * * * * * * * * * * * * * * * * * * * * * * * * * * * * * * * //

dimensions      [0 2 -2 0 0 0 0];


internalField   nonuniform List<scalar> 
244288
(
2.17161e-06
2.17286e-06
2.17293e-06
2.17249e-06
2.17215e-06
2.17257e-06
2.17296e-06
2.17287e-06
2.17301e-06
2.17306e-06
2.17279e-06
2.17261e-06
2.17284e-06
2.17309e-06
2.17299e-06
2.17293e-06
2.17306e-06
2.17285e-06
2.17248e-06
2.17232e-06
2.17252e-06
2.1729e-06
2.17307e-06
2.17293e-06
2.17249e-06
2.17279e-06
2.17248e-06
2.17205e-06
2.17189e-06
2.1721e-06
2.17254e-06
2.1728e-06
2.17241e-06
2.17161e-06
2.17215e-06
2.17261e-06
2.17232e-06
2.17189e-06
2.17173e-06
2.17194e-06
2.17238e-06
2.17262e-06
2.17204e-06
2.17257e-06
2.17283e-06
2.17252e-06
2.1721e-06
2.17194e-06
2.17215e-06
2.17258e-06
2.17285e-06
2.17251e-06
2.17296e-06
2.17309e-06
2.1729e-06
2.17254e-06
2.17238e-06
2.17258e-06
2.17294e-06
2.17309e-06
2.17297e-06
2.17299e-06
2.17307e-06
2.1728e-06
2.17261e-06
2.17285e-06
2.17309e-06
2.17296e-06
2.17293e-06
2.17242e-06
2.17204e-06
2.1725e-06
2.17297e-06
2.13776e-06
2.1364e-06
2.13733e-06
2.13547e-06
2.13523e-06
2.1351e-06
2.13525e-06
2.13782e-06
2.13778e-06
2.13732e-06
2.1347e-06
2.13182e-06
2.13172e-06
2.13172e-06
2.13182e-06
2.13623e-06
2.13575e-06
2.13547e-06
2.13182e-06
2.13165e-06
2.13166e-06
2.13166e-06
2.13166e-06
2.13182e-06
2.13656e-06
2.1383e-06
2.13776e-06
2.13523e-06
2.13172e-06
2.13166e-06
2.1317e-06
2.13171e-06
2.13166e-06
2.13173e-06
2.13624e-06
2.13708e-06
2.13642e-06
2.1351e-06
2.13172e-06
2.13166e-06
2.13171e-06
2.13171e-06
2.13166e-06
2.13173e-06
2.13616e-06
2.13485e-06
2.13524e-06
2.13182e-06
2.13165e-06
2.13166e-06
2.13166e-06
2.13166e-06
2.13183e-06
2.13636e-06
2.13623e-06
2.13781e-06
2.13622e-06
2.13182e-06
2.13173e-06
2.13173e-06
2.13183e-06
2.13695e-06
2.13638e-06
2.13841e-06
2.13778e-06
2.13575e-06
2.13656e-06
2.13624e-06
2.13616e-06
2.13636e-06
2.13639e-06
2.13888e-06
2.13831e-06
2.13709e-06
2.13485e-06
2.13622e-06
2.13841e-06
2.1171e-06
2.11688e-06
2.11688e-06
2.11423e-06
2.11421e-06
2.11415e-06
2.11428e-06
2.11752e-06
2.11747e-06
2.11687e-06
2.11298e-06
2.10991e-06
2.1096e-06
2.10959e-06
2.10988e-06
2.11533e-06
2.11524e-06
2.11422e-06
2.10991e-06
2.10893e-06
2.10892e-06
2.10892e-06
2.10892e-06
2.10993e-06
2.11663e-06
2.11828e-06
2.11705e-06
2.11423e-06
2.1096e-06
2.10892e-06
2.10897e-06
2.10897e-06
2.10892e-06
2.10959e-06
2.11672e-06
2.1175e-06
2.11683e-06
2.11414e-06
2.1096e-06
2.10892e-06
2.10897e-06
2.10897e-06
2.10892e-06
2.10961e-06
2.1166e-06
2.11461e-06
2.11427e-06
2.10988e-06
2.10892e-06
2.10892e-06
2.10892e-06
2.10892e-06
2.1099e-06
2.1168e-06
2.1182e-06
2.11752e-06
2.11533e-06
2.10992e-06
2.10959e-06
2.10959e-06
2.10991e-06
2.11715e-06
2.11599e-06
2.11806e-06
2.11748e-06
2.11523e-06
2.11662e-06
2.11672e-06
2.1166e-06
2.11681e-06
2.11601e-06
2.11858e-06
2.11827e-06
2.11746e-06
2.11465e-06
2.1182e-06
2.11807e-06
2.09509e-06
2.09492e-06
2.09483e-06
2.09195e-06
2.09197e-06
2.09175e-06
2.09217e-06
2.09544e-06
2.09546e-06
2.09484e-06
2.09029e-06
2.08757e-06
2.08744e-06
2.08743e-06
2.08759e-06
2.09289e-06
2.09333e-06
2.09194e-06
2.08757e-06
2.08721e-06
2.08718e-06
2.08718e-06
2.0872e-06
2.08757e-06
2.09464e-06
2.09629e-06
2.09507e-06
2.09198e-06
2.08743e-06
2.08718e-06
2.08717e-06
2.08717e-06
2.08718e-06
2.08744e-06
2.09504e-06
2.09555e-06
2.0949e-06
2.09174e-06
2.08743e-06
2.08718e-06
2.08717e-06
2.08717e-06
2.08718e-06
2.08744e-06
2.09496e-06
2.09285e-06
2.09217e-06
2.08759e-06
2.0872e-06
2.08718e-06
2.08718e-06
2.08721e-06
2.08759e-06
2.09499e-06
2.09624e-06
2.09545e-06
2.09289e-06
2.08757e-06
2.08744e-06
2.08744e-06
2.08757e-06
2.09541e-06
2.09405e-06
2.09614e-06
2.09547e-06
2.09334e-06
2.09464e-06
2.09505e-06
2.09497e-06
2.09498e-06
2.09405e-06
2.09645e-06
2.09629e-06
2.09554e-06
2.09287e-06
2.09624e-06
2.09613e-06
2.07273e-06
2.07258e-06
2.0723e-06
2.06936e-06
2.06937e-06
2.06902e-06
2.0696e-06
2.0729e-06
2.07291e-06
2.07229e-06
2.06747e-06
2.06493e-06
2.06489e-06
2.06489e-06
2.06493e-06
2.07011e-06
2.07084e-06
2.06936e-06
2.06493e-06
2.06484e-06
2.06483e-06
2.06483e-06
2.06484e-06
2.06493e-06
2.07219e-06
2.07387e-06
2.07275e-06
2.06936e-06
2.06489e-06
2.06483e-06
2.06483e-06
2.06483e-06
2.06483e-06
2.06489e-06
2.0728e-06
2.07329e-06
2.0726e-06
2.06902e-06
2.06489e-06
2.06483e-06
2.06483e-06
2.06483e-06
2.06483e-06
2.06489e-06
2.07277e-06
2.07064e-06
2.06961e-06
2.06494e-06
2.06484e-06
2.06483e-06
2.06483e-06
2.06484e-06
2.06494e-06
2.07263e-06
2.07394e-06
2.07291e-06
2.07011e-06
2.06493e-06
2.0649e-06
2.06489e-06
2.06493e-06
2.07314e-06
2.07164e-06
2.07369e-06
2.07292e-06
2.07085e-06
2.0722e-06
2.0728e-06
2.07277e-06
2.07263e-06
2.07164e-06
2.07391e-06
2.07387e-06
2.0733e-06
2.07065e-06
2.07395e-06
2.07369e-06
2.05025e-06
2.05012e-06
2.04975e-06
2.04681e-06
2.04681e-06
2.04642e-06
2.04705e-06
2.05037e-06
2.05037e-06
2.04975e-06
2.04488e-06
2.04236e-06
2.04235e-06
2.04235e-06
2.04236e-06
2.04747e-06
2.04831e-06
2.04681e-06
2.04236e-06
2.04234e-06
2.04234e-06
2.04234e-06
2.04234e-06
2.04236e-06
2.04967e-06
2.05136e-06
2.05029e-06
2.04677e-06
2.04235e-06
2.04234e-06
2.04234e-06
2.04234e-06
2.04234e-06
2.04235e-06
2.05033e-06
2.05083e-06
2.05015e-06
2.04646e-06
2.04235e-06
2.04234e-06
2.04234e-06
2.04234e-06
2.04234e-06
2.04235e-06
2.05032e-06
2.0482e-06
2.04706e-06
2.04236e-06
2.04234e-06
2.04234e-06
2.04234e-06
2.04234e-06
2.04236e-06
2.05013e-06
2.05147e-06
2.05036e-06
2.04747e-06
2.04236e-06
2.04235e-06
2.04235e-06
2.04236e-06
2.05069e-06
2.04914e-06
2.05116e-06
2.05037e-06
2.0483e-06
2.04967e-06
2.05033e-06
2.05032e-06
2.05013e-06
2.04913e-06
2.05138e-06
2.05134e-06
2.05083e-06
2.0482e-06
2.05147e-06
2.05116e-06
2.02772e-06
2.02759e-06
2.02722e-06
2.02426e-06
2.02426e-06
2.02386e-06
2.0245e-06
2.02782e-06
2.02782e-06
2.02721e-06
2.02232e-06
2.01981e-06
2.01981e-06
2.01981e-06
2.01981e-06
2.02491e-06
2.02577e-06
2.02427e-06
2.01981e-06
2.0198e-06
2.0198e-06
2.0198e-06
2.0198e-06
2.01981e-06
2.02713e-06
2.02881e-06
2.0278e-06
2.02423e-06
2.01981e-06
2.0198e-06
2.01981e-06
2.01981e-06
2.0198e-06
2.01981e-06
2.02781e-06
2.02831e-06
2.02762e-06
2.0239e-06
2.01981e-06
2.01981e-06
2.01981e-06
2.01981e-06
2.0198e-06
2.01981e-06
2.0278e-06
2.02568e-06
2.02451e-06
2.01981e-06
2.0198e-06
2.0198e-06
2.0198e-06
2.01981e-06
2.01981e-06
2.0276e-06
2.02895e-06
2.02781e-06
2.02491e-06
2.01981e-06
2.01981e-06
2.01981e-06
2.01981e-06
2.02818e-06
2.02661e-06
2.02862e-06
2.02782e-06
2.02576e-06
2.02712e-06
2.0278e-06
2.0278e-06
2.0276e-06
2.0266e-06
2.02883e-06
2.0288e-06
2.0283e-06
2.02569e-06
2.02895e-06
2.02861e-06
2.00519e-06
2.00506e-06
2.00468e-06
2.00172e-06
2.00172e-06
2.00132e-06
2.00196e-06
2.00528e-06
2.00528e-06
2.00466e-06
1.99977e-06
1.99727e-06
1.99727e-06
1.99727e-06
1.99727e-06
2.00236e-06
2.00322e-06
2.00171e-06
1.99726e-06
1.99726e-06
1.99726e-06
1.99726e-06
1.99726e-06
1.99727e-06
2.00459e-06
2.00627e-06
2.00521e-06
2.00169e-06
1.99726e-06
1.99726e-06
1.99726e-06
1.99727e-06
1.99726e-06
1.99727e-06
2.00527e-06
2.00577e-06
2.00507e-06
2.00129e-06
1.99726e-06
1.99726e-06
1.99727e-06
1.99727e-06
1.99726e-06
1.99727e-06
2.00526e-06
2.00314e-06
2.00197e-06
1.99727e-06
1.99726e-06
1.99726e-06
1.99726e-06
1.99726e-06
1.99727e-06
2.00506e-06
2.00641e-06
2.00528e-06
2.00236e-06
1.99727e-06
1.99726e-06
1.99726e-06
1.99727e-06
2.00564e-06
2.00407e-06
2.00608e-06
2.00528e-06
2.00323e-06
2.00459e-06
2.00527e-06
2.00527e-06
2.00506e-06
2.00407e-06
2.00629e-06
2.00627e-06
2.00578e-06
2.00315e-06
2.00641e-06
2.00607e-06
1.98264e-06
1.98251e-06
1.98213e-06
1.97918e-06
1.97918e-06
1.97877e-06
1.97942e-06
1.98274e-06
1.98274e-06
1.98212e-06
1.97722e-06
1.97472e-06
1.97472e-06
1.97472e-06
1.97472e-06
1.97981e-06
1.98068e-06
1.97917e-06
1.97472e-06
1.97472e-06
1.97472e-06
1.97472e-06
1.97472e-06
1.97472e-06
1.98204e-06
1.98373e-06
1.9826e-06
1.97918e-06
1.97472e-06
1.97472e-06
1.97472e-06
1.97472e-06
1.97472e-06
1.97472e-06
1.98273e-06
1.98323e-06
1.98246e-06
1.97881e-06
1.97472e-06
1.97472e-06
1.97472e-06
1.97472e-06
1.97472e-06
1.97472e-06
1.98273e-06
1.98061e-06
1.97941e-06
1.97472e-06
1.97472e-06
1.97472e-06
1.97472e-06
1.97472e-06
1.97472e-06
1.98252e-06
1.98387e-06
1.98273e-06
1.97982e-06
1.97472e-06
1.97472e-06
1.97472e-06
1.97472e-06
1.9831e-06
1.98154e-06
1.98353e-06
1.98274e-06
1.98068e-06
1.98204e-06
1.98273e-06
1.98273e-06
1.98252e-06
1.98152e-06
1.98375e-06
1.98372e-06
1.98323e-06
1.98061e-06
1.98387e-06
1.98353e-06
1.9601e-06
1.95997e-06
1.95959e-06
1.95663e-06
1.95663e-06
1.95623e-06
1.95687e-06
1.9602e-06
1.9602e-06
1.95958e-06
1.95468e-06
1.95218e-06
1.95218e-06
1.95218e-06
1.95218e-06
1.95727e-06
1.95814e-06
1.95663e-06
1.95218e-06
1.95218e-06
1.95218e-06
1.95218e-06
1.95218e-06
1.95218e-06
1.9595e-06
1.96119e-06
1.96004e-06
1.95662e-06
1.95218e-06
1.95218e-06
1.95218e-06
1.95218e-06
1.95218e-06
1.95218e-06
1.96018e-06
1.96069e-06
1.9599e-06
1.95626e-06
1.95218e-06
1.95218e-06
1.95218e-06
1.95218e-06
1.95218e-06
1.95218e-06
1.96018e-06
1.95807e-06
1.95686e-06
1.95218e-06
1.95218e-06
1.95218e-06
1.95218e-06
1.95218e-06
1.95218e-06
1.95998e-06
1.96133e-06
1.96019e-06
1.95728e-06
1.95218e-06
1.95218e-06
1.95218e-06
1.95218e-06
1.96056e-06
1.95899e-06
1.96099e-06
1.9602e-06
1.95814e-06
1.9595e-06
1.96018e-06
1.96019e-06
1.95998e-06
1.95898e-06
1.96121e-06
1.96118e-06
1.96069e-06
1.95807e-06
1.96133e-06
1.96098e-06
1.93756e-06
1.93743e-06
1.93705e-06
1.93409e-06
1.93409e-06
1.93368e-06
1.93433e-06
1.93765e-06
1.93766e-06
1.93703e-06
1.93214e-06
1.92964e-06
1.92964e-06
1.92964e-06
1.92964e-06
1.93473e-06
1.9356e-06
1.93408e-06
1.92964e-06
1.92964e-06
1.92964e-06
1.92964e-06
1.92964e-06
1.92964e-06
1.93696e-06
1.93865e-06
1.93752e-06
1.93408e-06
1.92964e-06
1.92964e-06
1.92964e-06
1.92964e-06
1.92964e-06
1.92964e-06
1.93764e-06
1.93814e-06
1.93739e-06
1.93371e-06
1.92964e-06
1.92964e-06
1.92964e-06
1.92964e-06
1.92964e-06
1.92964e-06
1.93764e-06
1.93552e-06
1.93433e-06
1.92964e-06
1.92964e-06
1.92964e-06
1.92964e-06
1.92964e-06
1.92964e-06
1.93744e-06
1.93878e-06
1.93765e-06
1.93474e-06
1.92964e-06
1.92964e-06
1.92964e-06
1.92964e-06
1.93802e-06
1.93645e-06
1.93845e-06
1.93766e-06
1.9356e-06
1.93696e-06
1.93764e-06
1.93764e-06
1.93743e-06
1.93644e-06
1.93866e-06
1.93864e-06
1.93815e-06
1.93552e-06
1.93878e-06
1.93844e-06
1.91501e-06
1.91488e-06
1.91451e-06
1.91155e-06
1.91155e-06
1.91114e-06
1.91179e-06
1.91511e-06
1.91511e-06
1.91449e-06
1.9096e-06
1.90709e-06
1.90709e-06
1.90709e-06
1.90709e-06
1.91218e-06
1.91305e-06
1.91155e-06
1.90709e-06
1.90709e-06
1.90709e-06
1.90709e-06
1.90709e-06
1.90709e-06
1.91441e-06
1.9161e-06
1.91502e-06
1.91155e-06
1.90709e-06
1.90709e-06
1.90709e-06
1.90709e-06
1.90709e-06
1.90709e-06
1.9151e-06
1.9156e-06
1.91488e-06
1.91114e-06
1.90709e-06
1.90709e-06
1.90709e-06
1.90709e-06
1.90709e-06
1.90709e-06
1.9151e-06
1.91298e-06
1.91179e-06
1.90709e-06
1.90709e-06
1.90709e-06
1.90709e-06
1.90709e-06
1.90709e-06
1.91489e-06
1.91624e-06
1.9151e-06
1.91219e-06
1.90709e-06
1.90709e-06
1.90709e-06
1.90709e-06
1.91547e-06
1.91391e-06
1.91591e-06
1.91511e-06
1.91305e-06
1.91441e-06
1.9151e-06
1.9151e-06
1.91489e-06
1.91389e-06
1.91612e-06
1.91609e-06
1.9156e-06
1.91298e-06
1.91624e-06
1.9159e-06
1.89247e-06
1.89234e-06
1.89197e-06
1.88901e-06
1.88901e-06
1.8886e-06
1.88924e-06
1.89257e-06
1.89257e-06
1.89195e-06
1.88706e-06
1.88455e-06
1.88455e-06
1.88455e-06
1.88455e-06
1.88964e-06
1.89051e-06
1.889e-06
1.88455e-06
1.88455e-06
1.88455e-06
1.88455e-06
1.88455e-06
1.88455e-06
1.89187e-06
1.89356e-06
1.89249e-06
1.88898e-06
1.88455e-06
1.88455e-06
1.88455e-06
1.88455e-06
1.88455e-06
1.88455e-06
1.89256e-06
1.89306e-06
1.89234e-06
1.88862e-06
1.88455e-06
1.88455e-06
1.88455e-06
1.88455e-06
1.88455e-06
1.88455e-06
1.89256e-06
1.89044e-06
1.88924e-06
1.88455e-06
1.88455e-06
1.88455e-06
1.88455e-06
1.88455e-06
1.88455e-06
1.89235e-06
1.8937e-06
1.89256e-06
1.88964e-06
1.88455e-06
1.88455e-06
1.88455e-06
1.88455e-06
1.89293e-06
1.89136e-06
1.89336e-06
1.89257e-06
1.89051e-06
1.89187e-06
1.89256e-06
1.89256e-06
1.89234e-06
1.89135e-06
1.89358e-06
1.89355e-06
1.89306e-06
1.89044e-06
1.8937e-06
1.89336e-06
1.86993e-06
1.8698e-06
1.86942e-06
1.86647e-06
1.86647e-06
1.86606e-06
1.8667e-06
1.87003e-06
1.87003e-06
1.86941e-06
1.86452e-06
1.86201e-06
1.86201e-06
1.86201e-06
1.86201e-06
1.8671e-06
1.86797e-06
1.86646e-06
1.862e-06
1.86201e-06
1.86201e-06
1.86201e-06
1.86201e-06
1.86201e-06
1.86933e-06
1.87102e-06
1.87002e-06
1.86641e-06
1.862e-06
1.86201e-06
1.86201e-06
1.86201e-06
1.86201e-06
1.86201e-06
1.87001e-06
1.87051e-06
1.8698e-06
1.8661e-06
1.86201e-06
1.86201e-06
1.86201e-06
1.86201e-06
1.86201e-06
1.86201e-06
1.87001e-06
1.86789e-06
1.86671e-06
1.86201e-06
1.86201e-06
1.86201e-06
1.86201e-06
1.86201e-06
1.86201e-06
1.86981e-06
1.87115e-06
1.87002e-06
1.8671e-06
1.86201e-06
1.86201e-06
1.86201e-06
1.86201e-06
1.87039e-06
1.86882e-06
1.87082e-06
1.87003e-06
1.86796e-06
1.86933e-06
1.87001e-06
1.87002e-06
1.8698e-06
1.86881e-06
1.87103e-06
1.87101e-06
1.87052e-06
1.8679e-06
1.87116e-06
1.87082e-06
1.84739e-06
1.84726e-06
1.84688e-06
1.84392e-06
1.84392e-06
1.84351e-06
1.84416e-06
1.84748e-06
1.84748e-06
1.84686e-06
1.84197e-06
1.83947e-06
1.83947e-06
1.83947e-06
1.83947e-06
1.84456e-06
1.84543e-06
1.84392e-06
1.83946e-06
1.83947e-06
1.83947e-06
1.83947e-06
1.83947e-06
1.83947e-06
1.84679e-06
1.84847e-06
1.84745e-06
1.84389e-06
1.83946e-06
1.83947e-06
1.83947e-06
1.83947e-06
1.83947e-06
1.83947e-06
1.84747e-06
1.84797e-06
1.84731e-06
1.84355e-06
1.83947e-06
1.83947e-06
1.83947e-06
1.83947e-06
1.83947e-06
1.83947e-06
1.84747e-06
1.84535e-06
1.84415e-06
1.83947e-06
1.83947e-06
1.83946e-06
1.83946e-06
1.83947e-06
1.83947e-06
1.84726e-06
1.84861e-06
1.84747e-06
1.84455e-06
1.83947e-06
1.83946e-06
1.83946e-06
1.83946e-06
1.84785e-06
1.84628e-06
1.84828e-06
1.84748e-06
1.84542e-06
1.84679e-06
1.84747e-06
1.84747e-06
1.84726e-06
1.84626e-06
1.84849e-06
1.84846e-06
1.84797e-06
1.84535e-06
1.84862e-06
1.84827e-06
1.82485e-06
1.82472e-06
1.82433e-06
1.82138e-06
1.82137e-06
1.82097e-06
1.82162e-06
1.82494e-06
1.82494e-06
1.82432e-06
1.81943e-06
1.81692e-06
1.81692e-06
1.81692e-06
1.81692e-06
1.82201e-06
1.82288e-06
1.82137e-06
1.81692e-06
1.81692e-06
1.81692e-06
1.81692e-06
1.81692e-06
1.81692e-06
1.82424e-06
1.82593e-06
1.82484e-06
1.82137e-06
1.81692e-06
1.81692e-06
1.81692e-06
1.81692e-06
1.81692e-06
1.81692e-06
1.82493e-06
1.82543e-06
1.8247e-06
1.82098e-06
1.81692e-06
1.81692e-06
1.81692e-06
1.81692e-06
1.81692e-06
1.81692e-06
1.82493e-06
1.82281e-06
1.82161e-06
1.81692e-06
1.81692e-06
1.81692e-06
1.81692e-06
1.81692e-06
1.81692e-06
1.82472e-06
1.82607e-06
1.82493e-06
1.82201e-06
1.81692e-06
1.81692e-06
1.81692e-06
1.81692e-06
1.8253e-06
1.82373e-06
1.82573e-06
1.82494e-06
1.82288e-06
1.82424e-06
1.82493e-06
1.82493e-06
1.82472e-06
1.82372e-06
1.82595e-06
1.82592e-06
1.82543e-06
1.82281e-06
1.82607e-06
1.82573e-06
1.8023e-06
1.80217e-06
1.80179e-06
1.79884e-06
1.79883e-06
1.79842e-06
1.79907e-06
1.8024e-06
1.8024e-06
1.80177e-06
1.79688e-06
1.79438e-06
1.79438e-06
1.79438e-06
1.79438e-06
1.79947e-06
1.80034e-06
1.79883e-06
1.79438e-06
1.79438e-06
1.79438e-06
1.79438e-06
1.79438e-06
1.79438e-06
1.8017e-06
1.80339e-06
1.80231e-06
1.79882e-06
1.79438e-06
1.79438e-06
1.79438e-06
1.79438e-06
1.79438e-06
1.79438e-06
1.80238e-06
1.80288e-06
1.80218e-06
1.79843e-06
1.79438e-06
1.79438e-06
1.79438e-06
1.79438e-06
1.79438e-06
1.79438e-06
1.80238e-06
1.80027e-06
1.79907e-06
1.79438e-06
1.79438e-06
1.79438e-06
1.79438e-06
1.79438e-06
1.79438e-06
1.80218e-06
1.80352e-06
1.80239e-06
1.79947e-06
1.79438e-06
1.79438e-06
1.79438e-06
1.79438e-06
1.80276e-06
1.80119e-06
1.80319e-06
1.8024e-06
1.80034e-06
1.8017e-06
1.80238e-06
1.80238e-06
1.80217e-06
1.80118e-06
1.8034e-06
1.80338e-06
1.80289e-06
1.80025e-06
1.80353e-06
1.80319e-06
1.77976e-06
1.77962e-06
1.77925e-06
1.77629e-06
1.77629e-06
1.77588e-06
1.77653e-06
1.77985e-06
1.77985e-06
1.77923e-06
1.77434e-06
1.77184e-06
1.77184e-06
1.77184e-06
1.77184e-06
1.77693e-06
1.7778e-06
1.77629e-06
1.77184e-06
1.77184e-06
1.77184e-06
1.77184e-06
1.77184e-06
1.77184e-06
1.77916e-06
1.78085e-06
1.77976e-06
1.77629e-06
1.77184e-06
1.77184e-06
1.77184e-06
1.77184e-06
1.77184e-06
1.77183e-06
1.77984e-06
1.78034e-06
1.77963e-06
1.77589e-06
1.77184e-06
1.77184e-06
1.77184e-06
1.77184e-06
1.77184e-06
1.77183e-06
1.77984e-06
1.77772e-06
1.77653e-06
1.77184e-06
1.77184e-06
1.77184e-06
1.77183e-06
1.77184e-06
1.77184e-06
1.77963e-06
1.78098e-06
1.77985e-06
1.77693e-06
1.77183e-06
1.77183e-06
1.77184e-06
1.77184e-06
1.78022e-06
1.77865e-06
1.78065e-06
1.77986e-06
1.7778e-06
1.77916e-06
1.77984e-06
1.77983e-06
1.77962e-06
1.77863e-06
1.78086e-06
1.78085e-06
1.78039e-06
1.77768e-06
1.78097e-06
1.78064e-06
1.75722e-06
1.75709e-06
1.7567e-06
1.75375e-06
1.75375e-06
1.75334e-06
1.75399e-06
1.75731e-06
1.75731e-06
1.75669e-06
1.7518e-06
1.74929e-06
1.74929e-06
1.74929e-06
1.74929e-06
1.75438e-06
1.75525e-06
1.75374e-06
1.74929e-06
1.74929e-06
1.74929e-06
1.74929e-06
1.74929e-06
1.74929e-06
1.75662e-06
1.7583e-06
1.7572e-06
1.75375e-06
1.74929e-06
1.74929e-06
1.74929e-06
1.74929e-06
1.74929e-06
1.74929e-06
1.7573e-06
1.7578e-06
1.75707e-06
1.75335e-06
1.7493e-06
1.74929e-06
1.74929e-06
1.74929e-06
1.74929e-06
1.74929e-06
1.7573e-06
1.75518e-06
1.75399e-06
1.7493e-06
1.7493e-06
1.7493e-06
1.74929e-06
1.74929e-06
1.74929e-06
1.75709e-06
1.75844e-06
1.75731e-06
1.75439e-06
1.74929e-06
1.7493e-06
1.7493e-06
1.74929e-06
1.75767e-06
1.7561e-06
1.7581e-06
1.75732e-06
1.75525e-06
1.75662e-06
1.75731e-06
1.75731e-06
1.75708e-06
1.75609e-06
1.75831e-06
1.75831e-06
1.75785e-06
1.75516e-06
1.75843e-06
1.75808e-06
1.73467e-06
1.73454e-06
1.73416e-06
1.73121e-06
1.73121e-06
1.7308e-06
1.73144e-06
1.73477e-06
1.73477e-06
1.73414e-06
1.72925e-06
1.72675e-06
1.72675e-06
1.72675e-06
1.72675e-06
1.73184e-06
1.73271e-06
1.7312e-06
1.72675e-06
1.72675e-06
1.72675e-06
1.72675e-06
1.72675e-06
1.72675e-06
1.73407e-06
1.73576e-06
1.73467e-06
1.73121e-06
1.72675e-06
1.72675e-06
1.72675e-06
1.72675e-06
1.72675e-06
1.72675e-06
1.73476e-06
1.73526e-06
1.73453e-06
1.7308e-06
1.72675e-06
1.72675e-06
1.72675e-06
1.72675e-06
1.72675e-06
1.72675e-06
1.73475e-06
1.73264e-06
1.73145e-06
1.72675e-06
1.72675e-06
1.72675e-06
1.72675e-06
1.72675e-06
1.72675e-06
1.73455e-06
1.73589e-06
1.73476e-06
1.73184e-06
1.72675e-06
1.72675e-06
1.72675e-06
1.72675e-06
1.73514e-06
1.73356e-06
1.73556e-06
1.73477e-06
1.7327e-06
1.73406e-06
1.73475e-06
1.73478e-06
1.73455e-06
1.73355e-06
1.73578e-06
1.73575e-06
1.73522e-06
1.73266e-06
1.73591e-06
1.73556e-06
1.71212e-06
1.71199e-06
1.71162e-06
1.70866e-06
1.70867e-06
1.70826e-06
1.7089e-06
1.71223e-06
1.71223e-06
1.7116e-06
1.70671e-06
1.70421e-06
1.70421e-06
1.70421e-06
1.70421e-06
1.7093e-06
1.71017e-06
1.70866e-06
1.70421e-06
1.70421e-06
1.70421e-06
1.70421e-06
1.70421e-06
1.70421e-06
1.71153e-06
1.71322e-06
1.71213e-06
1.70866e-06
1.70421e-06
1.70421e-06
1.70421e-06
1.70421e-06
1.70421e-06
1.70421e-06
1.71221e-06
1.71271e-06
1.71199e-06
1.70826e-06
1.70421e-06
1.70421e-06
1.70421e-06
1.70421e-06
1.70421e-06
1.70421e-06
1.71221e-06
1.71009e-06
1.7089e-06
1.70421e-06
1.70421e-06
1.70421e-06
1.70421e-06
1.70421e-06
1.70421e-06
1.71201e-06
1.71335e-06
1.71221e-06
1.7093e-06
1.70421e-06
1.70421e-06
1.70421e-06
1.70421e-06
1.71259e-06
1.71102e-06
1.71302e-06
1.71222e-06
1.71016e-06
1.71152e-06
1.7122e-06
1.71225e-06
1.71202e-06
1.71101e-06
1.71323e-06
1.7132e-06
1.71266e-06
1.71015e-06
1.71337e-06
1.71301e-06
1.68958e-06
1.68945e-06
1.68908e-06
1.68612e-06
1.68612e-06
1.68571e-06
1.68636e-06
1.68968e-06
1.68968e-06
1.68906e-06
1.68417e-06
1.68167e-06
1.68166e-06
1.68166e-06
1.68166e-06
1.68676e-06
1.68763e-06
1.68611e-06
1.68167e-06
1.68166e-06
1.68167e-06
1.68166e-06
1.68166e-06
1.68166e-06
1.68899e-06
1.69067e-06
1.68959e-06
1.68612e-06
1.68167e-06
1.68167e-06
1.68167e-06
1.68167e-06
1.68166e-06
1.68166e-06
1.68967e-06
1.69017e-06
1.68946e-06
1.68571e-06
1.68167e-06
1.68167e-06
1.68167e-06
1.68167e-06
1.68166e-06
1.68166e-06
1.68967e-06
1.68755e-06
1.68636e-06
1.68167e-06
1.68167e-06
1.68167e-06
1.68167e-06
1.68166e-06
1.68166e-06
1.68946e-06
1.69081e-06
1.68968e-06
1.68676e-06
1.68166e-06
1.68167e-06
1.68167e-06
1.68167e-06
1.69005e-06
1.68847e-06
1.69047e-06
1.68968e-06
1.68762e-06
1.68899e-06
1.68967e-06
1.68966e-06
1.68944e-06
1.68846e-06
1.69068e-06
1.69068e-06
1.69021e-06
1.68751e-06
1.6908e-06
1.69045e-06
1.66704e-06
1.66691e-06
1.66653e-06
1.66358e-06
1.66358e-06
1.66317e-06
1.66382e-06
1.66714e-06
1.66714e-06
1.66652e-06
1.66163e-06
1.65912e-06
1.65912e-06
1.65912e-06
1.65912e-06
1.66421e-06
1.66508e-06
1.66357e-06
1.65912e-06
1.65912e-06
1.65912e-06
1.65912e-06
1.65912e-06
1.65912e-06
1.66644e-06
1.66813e-06
1.66705e-06
1.66357e-06
1.65912e-06
1.65912e-06
1.65912e-06
1.65912e-06
1.65912e-06
1.65912e-06
1.66713e-06
1.66763e-06
1.66692e-06
1.66317e-06
1.65912e-06
1.65912e-06
1.65912e-06
1.65912e-06
1.65912e-06
1.65912e-06
1.66713e-06
1.66501e-06
1.66382e-06
1.65912e-06
1.65912e-06
1.65912e-06
1.65912e-06
1.65912e-06
1.65912e-06
1.66692e-06
1.66827e-06
1.66714e-06
1.66422e-06
1.65912e-06
1.65912e-06
1.65912e-06
1.65912e-06
1.66751e-06
1.66593e-06
1.66793e-06
1.66714e-06
1.66508e-06
1.66645e-06
1.66714e-06
1.66714e-06
1.6669e-06
1.66592e-06
1.66814e-06
1.66814e-06
1.66768e-06
1.66499e-06
1.66826e-06
1.66791e-06
1.6445e-06
1.64437e-06
1.64399e-06
1.64103e-06
1.64103e-06
1.64063e-06
1.64127e-06
1.64459e-06
1.6446e-06
1.64397e-06
1.63908e-06
1.63658e-06
1.63658e-06
1.63658e-06
1.63658e-06
1.64167e-06
1.64254e-06
1.64103e-06
1.63658e-06
1.63658e-06
1.63658e-06
1.63658e-06
1.63658e-06
1.63658e-06
1.6439e-06
1.64559e-06
1.6445e-06
1.64104e-06
1.63658e-06
1.63658e-06
1.63658e-06
1.63658e-06
1.63658e-06
1.63658e-06
1.64459e-06
1.64509e-06
1.64437e-06
1.64062e-06
1.63658e-06
1.63658e-06
1.63658e-06
1.63658e-06
1.63658e-06
1.63658e-06
1.64458e-06
1.64247e-06
1.64128e-06
1.63658e-06
1.63658e-06
1.63658e-06
1.63658e-06
1.63658e-06
1.63658e-06
1.64438e-06
1.64573e-06
1.6446e-06
1.64167e-06
1.63658e-06
1.63658e-06
1.63658e-06
1.63658e-06
1.64496e-06
1.64339e-06
1.64539e-06
1.6446e-06
1.64253e-06
1.64389e-06
1.64458e-06
1.6446e-06
1.64438e-06
1.64338e-06
1.6456e-06
1.64559e-06
1.64507e-06
1.64249e-06
1.64574e-06
1.64537e-06
1.62196e-06
1.62182e-06
1.62145e-06
1.61849e-06
1.61849e-06
1.61808e-06
1.61873e-06
1.62205e-06
1.62205e-06
1.62143e-06
1.61654e-06
1.61404e-06
1.61404e-06
1.61404e-06
1.61404e-06
1.61913e-06
1.62e-06
1.61849e-06
1.61404e-06
1.61404e-06
1.61404e-06
1.61404e-06
1.61404e-06
1.61404e-06
1.62136e-06
1.62305e-06
1.62196e-06
1.61848e-06
1.61404e-06
1.61404e-06
1.61404e-06
1.61404e-06
1.61404e-06
1.61404e-06
1.62204e-06
1.62254e-06
1.62183e-06
1.61808e-06
1.61403e-06
1.61404e-06
1.61404e-06
1.61404e-06
1.61404e-06
1.61404e-06
1.62204e-06
1.61992e-06
1.61873e-06
1.61404e-06
1.61404e-06
1.61404e-06
1.61404e-06
1.61404e-06
1.61404e-06
1.62184e-06
1.62318e-06
1.62205e-06
1.61912e-06
1.61404e-06
1.61404e-06
1.61403e-06
1.61403e-06
1.62242e-06
1.62085e-06
1.62285e-06
1.62205e-06
1.61999e-06
1.62135e-06
1.62202e-06
1.62206e-06
1.62184e-06
1.62084e-06
1.62306e-06
1.62304e-06
1.62248e-06
1.61997e-06
1.6232e-06
1.62284e-06
1.59943e-06
1.59929e-06
1.5989e-06
1.59595e-06
1.59594e-06
1.59554e-06
1.59619e-06
1.59951e-06
1.59951e-06
1.59889e-06
1.594e-06
1.59149e-06
1.59149e-06
1.59149e-06
1.59149e-06
1.59658e-06
1.59745e-06
1.59594e-06
1.59149e-06
1.59149e-06
1.59149e-06
1.59149e-06
1.59149e-06
1.59149e-06
1.59882e-06
1.6005e-06
1.59941e-06
1.59595e-06
1.59149e-06
1.59149e-06
1.59149e-06
1.59149e-06
1.59149e-06
1.59149e-06
1.5995e-06
1.6e-06
1.59929e-06
1.59554e-06
1.59149e-06
1.59149e-06
1.59149e-06
1.59149e-06
1.59149e-06
1.59149e-06
1.5995e-06
1.59738e-06
1.59619e-06
1.59149e-06
1.59149e-06
1.59149e-06
1.59149e-06
1.59149e-06
1.59149e-06
1.59929e-06
1.60064e-06
1.59951e-06
1.59658e-06
1.59149e-06
1.59149e-06
1.59149e-06
1.59149e-06
1.59988e-06
1.59831e-06
1.60031e-06
1.59951e-06
1.59745e-06
1.59881e-06
1.5995e-06
1.59952e-06
1.59929e-06
1.59829e-06
1.60052e-06
1.60049e-06
1.59997e-06
1.59741e-06
1.60065e-06
1.6003e-06
1.57687e-06
1.57674e-06
1.57636e-06
1.57341e-06
1.5734e-06
1.573e-06
1.57364e-06
1.57697e-06
1.57697e-06
1.57635e-06
1.57145e-06
1.56895e-06
1.56895e-06
1.56895e-06
1.56895e-06
1.57404e-06
1.57491e-06
1.5734e-06
1.56895e-06
1.56895e-06
1.56895e-06
1.56895e-06
1.56895e-06
1.56895e-06
1.57627e-06
1.57796e-06
1.57687e-06
1.57341e-06
1.56895e-06
1.56895e-06
1.56895e-06
1.56895e-06
1.56895e-06
1.56895e-06
1.57696e-06
1.57746e-06
1.57674e-06
1.57301e-06
1.56895e-06
1.56895e-06
1.56895e-06
1.56895e-06
1.56895e-06
1.56895e-06
1.57695e-06
1.57484e-06
1.57364e-06
1.56895e-06
1.56895e-06
1.56895e-06
1.56895e-06
1.56895e-06
1.56895e-06
1.57675e-06
1.5781e-06
1.57696e-06
1.57404e-06
1.56895e-06
1.56895e-06
1.56895e-06
1.56895e-06
1.57734e-06
1.57576e-06
1.57776e-06
1.57697e-06
1.57491e-06
1.57627e-06
1.57696e-06
1.57696e-06
1.57675e-06
1.57575e-06
1.57798e-06
1.57795e-06
1.57746e-06
1.57484e-06
1.57809e-06
1.57775e-06
1.55433e-06
1.5542e-06
1.55382e-06
1.55087e-06
1.55086e-06
1.55046e-06
1.5511e-06
1.55443e-06
1.55443e-06
1.5538e-06
1.54891e-06
1.54641e-06
1.54641e-06
1.54641e-06
1.54641e-06
1.5515e-06
1.55237e-06
1.55086e-06
1.54641e-06
1.54641e-06
1.54641e-06
1.54641e-06
1.54641e-06
1.54641e-06
1.55373e-06
1.55542e-06
1.55431e-06
1.55087e-06
1.54641e-06
1.54641e-06
1.54641e-06
1.54641e-06
1.54641e-06
1.54641e-06
1.55441e-06
1.55491e-06
1.55417e-06
1.55049e-06
1.54641e-06
1.54641e-06
1.54641e-06
1.54641e-06
1.54641e-06
1.54641e-06
1.55441e-06
1.55229e-06
1.5511e-06
1.54641e-06
1.54641e-06
1.54641e-06
1.54641e-06
1.54641e-06
1.54641e-06
1.55421e-06
1.55556e-06
1.55442e-06
1.5515e-06
1.54641e-06
1.54641e-06
1.54641e-06
1.54641e-06
1.55479e-06
1.55322e-06
1.55522e-06
1.55443e-06
1.55237e-06
1.55373e-06
1.55442e-06
1.55442e-06
1.5542e-06
1.55321e-06
1.55543e-06
1.55541e-06
1.55492e-06
1.55229e-06
1.55555e-06
1.55521e-06
1.53179e-06
1.53166e-06
1.53128e-06
1.52832e-06
1.52832e-06
1.52791e-06
1.52856e-06
1.53188e-06
1.53188e-06
1.53126e-06
1.52637e-06
1.52386e-06
1.52386e-06
1.52387e-06
1.52387e-06
1.52896e-06
1.52983e-06
1.52832e-06
1.52387e-06
1.52387e-06
1.52387e-06
1.52387e-06
1.52387e-06
1.52387e-06
1.53119e-06
1.53287e-06
1.53173e-06
1.52831e-06
1.52387e-06
1.52387e-06
1.52387e-06
1.52387e-06
1.52387e-06
1.52387e-06
1.53187e-06
1.53237e-06
1.53159e-06
1.52795e-06
1.52386e-06
1.52387e-06
1.52387e-06
1.52387e-06
1.52387e-06
1.52387e-06
1.53187e-06
1.52975e-06
1.52855e-06
1.52387e-06
1.52387e-06
1.52387e-06
1.52387e-06
1.52387e-06
1.52387e-06
1.53166e-06
1.53301e-06
1.53188e-06
1.52896e-06
1.52387e-06
1.52387e-06
1.52387e-06
1.52387e-06
1.53225e-06
1.53068e-06
1.53268e-06
1.53189e-06
1.52982e-06
1.53119e-06
1.53187e-06
1.53187e-06
1.53166e-06
1.53067e-06
1.53289e-06
1.53287e-06
1.53238e-06
1.52976e-06
1.53301e-06
1.53267e-06
1.50924e-06
1.50911e-06
1.50874e-06
1.50578e-06
1.50578e-06
1.50537e-06
1.50602e-06
1.50934e-06
1.50934e-06
1.50872e-06
1.50382e-06
1.50132e-06
1.50132e-06
1.50132e-06
1.50132e-06
1.50641e-06
1.50728e-06
1.50576e-06
1.50132e-06
1.50132e-06
1.50132e-06
1.50132e-06
1.50132e-06
1.50132e-06
1.50864e-06
1.51033e-06
1.50922e-06
1.50578e-06
1.50132e-06
1.50132e-06
1.50132e-06
1.50132e-06
1.50132e-06
1.50132e-06
1.50933e-06
1.50983e-06
1.50909e-06
1.5054e-06
1.50132e-06
1.50132e-06
1.50132e-06
1.50132e-06
1.50132e-06
1.50132e-06
1.50933e-06
1.50721e-06
1.50601e-06
1.50132e-06
1.50132e-06
1.50132e-06
1.50132e-06
1.50132e-06
1.50132e-06
1.50912e-06
1.51047e-06
1.50933e-06
1.50642e-06
1.50132e-06
1.50132e-06
1.50132e-06
1.50132e-06
1.5097e-06
1.50814e-06
1.51014e-06
1.50934e-06
1.50728e-06
1.50864e-06
1.50933e-06
1.50933e-06
1.50912e-06
1.50812e-06
1.51035e-06
1.51032e-06
1.50984e-06
1.50721e-06
1.51047e-06
1.51013e-06
1.4867e-06
1.48657e-06
1.48619e-06
1.48323e-06
1.48323e-06
1.48283e-06
1.48347e-06
1.4868e-06
1.4868e-06
1.48618e-06
1.48128e-06
1.47878e-06
1.47878e-06
1.47878e-06
1.47878e-06
1.48387e-06
1.48474e-06
1.48323e-06
1.47878e-06
1.47878e-06
1.47878e-06
1.47878e-06
1.47878e-06
1.47878e-06
1.4861e-06
1.48779e-06
1.4867e-06
1.48323e-06
1.47878e-06
1.47878e-06
1.47878e-06
1.47878e-06
1.47878e-06
1.47878e-06
1.48679e-06
1.48729e-06
1.48657e-06
1.48284e-06
1.47878e-06
1.47878e-06
1.47878e-06
1.47878e-06
1.47878e-06
1.47878e-06
1.48678e-06
1.48467e-06
1.48348e-06
1.47878e-06
1.47878e-06
1.47878e-06
1.47878e-06
1.47878e-06
1.47878e-06
1.48658e-06
1.48793e-06
1.48679e-06
1.48388e-06
1.47878e-06
1.47878e-06
1.47878e-06
1.47878e-06
1.48716e-06
1.48559e-06
1.48759e-06
1.4868e-06
1.48474e-06
1.4861e-06
1.48679e-06
1.48679e-06
1.48657e-06
1.48558e-06
1.48781e-06
1.48778e-06
1.4873e-06
1.48467e-06
1.48793e-06
1.48759e-06
1.46416e-06
1.46403e-06
1.46365e-06
1.46069e-06
1.46069e-06
1.46029e-06
1.46093e-06
1.46425e-06
1.46426e-06
1.46364e-06
1.45874e-06
1.45624e-06
1.45624e-06
1.45624e-06
1.45624e-06
1.46133e-06
1.4622e-06
1.46069e-06
1.45624e-06
1.45624e-06
1.45624e-06
1.45624e-06
1.45624e-06
1.45624e-06
1.46356e-06
1.46525e-06
1.46416e-06
1.46069e-06
1.45624e-06
1.45624e-06
1.45624e-06
1.45624e-06
1.45624e-06
1.45624e-06
1.46424e-06
1.46474e-06
1.46403e-06
1.46029e-06
1.45624e-06
1.45624e-06
1.45624e-06
1.45624e-06
1.45624e-06
1.45624e-06
1.46424e-06
1.46212e-06
1.46093e-06
1.45624e-06
1.45624e-06
1.45624e-06
1.45624e-06
1.45624e-06
1.45624e-06
1.46404e-06
1.46538e-06
1.46425e-06
1.46133e-06
1.45624e-06
1.45624e-06
1.45624e-06