/*--------------------------------*- C++ -*----------------------------------*\
| =========                 |                                                 |
| \\      /  F ield         | OpenFOAM: The Open Source CFD Toolbox           |
|  \\    /   O peration     | Version:  v2012                                 |
|   \\  /    A nd           | Website:  www.openfoam.com                      |
|    \\/     M anipulation  |                                                 |
\*---------------------------------------------------------------------------*/
FoamFile
{
    version     2.0;
    format      ascii;
    class       volScalarField;
    location    "3";
    object      p;
}
// * * * * * * * * * * * * * * * * * * * * * * * * * * * * * * * * * * * * * //

dimensions      [0 2 -2 0 0 0 0];


internalField   nonuniform List<scalar> 
244288
(
1.68887e-06
1.68918e-06
1.68918e-06
1.68898e-06
1.68886e-06
1.689e-06
1.68919e-06
1.68918e-06
1.68914e-06
1.68895e-06
1.68868e-06
1.68857e-06
1.68871e-06
1.68899e-06
1.68914e-06
1.68918e-06
1.68895e-06
1.68853e-06
1.68814e-06
1.688e-06
1.68818e-06
1.68859e-06
1.68899e-06
1.6892e-06
1.68898e-06
1.68868e-06
1.68814e-06
1.68768e-06
1.68753e-06
1.68773e-06
1.68821e-06
1.68874e-06
1.68899e-06
1.68887e-06
1.68886e-06
1.68857e-06
1.688e-06
1.68753e-06
1.68736e-06
1.68757e-06
1.68807e-06
1.68863e-06
1.68886e-06
1.689e-06
1.68871e-06
1.68818e-06
1.68773e-06
1.68757e-06
1.68777e-06
1.68825e-06
1.68877e-06
1.68902e-06
1.68919e-06
1.68899e-06
1.68859e-06
1.68821e-06
1.68807e-06
1.68825e-06
1.68865e-06
1.68903e-06
1.68921e-06
1.68914e-06
1.68899e-06
1.68874e-06
1.68863e-06
1.68876e-06
1.68903e-06
1.68914e-06
1.6892e-06
1.68899e-06
1.68886e-06
1.68902e-06
1.68921e-06
1.65884e-06
1.65834e-06
1.65794e-06
1.65651e-06
1.65644e-06
1.65644e-06
1.65643e-06
1.65781e-06
1.65795e-06
1.65794e-06
1.65611e-06
1.65361e-06
1.65362e-06
1.65362e-06
1.65361e-06
1.65585e-06
1.65645e-06
1.65651e-06
1.65361e-06
1.6537e-06
1.65374e-06
1.65374e-06
1.6537e-06
1.65361e-06
1.65612e-06
1.65812e-06
1.65884e-06
1.65644e-06
1.65362e-06
1.65374e-06
1.6538e-06
1.6538e-06
1.65374e-06
1.65363e-06
1.65601e-06
1.65798e-06
1.65834e-06
1.65644e-06
1.65362e-06
1.65374e-06
1.6538e-06
1.6538e-06
1.65374e-06
1.65363e-06
1.656e-06
1.65672e-06
1.65643e-06
1.65361e-06
1.6537e-06
1.65374e-06
1.65374e-06
1.6537e-06
1.65362e-06
1.65603e-06
1.65806e-06
1.65781e-06
1.65585e-06
1.65361e-06
1.65362e-06
1.65362e-06
1.6536e-06
1.65549e-06
1.65632e-06
1.65816e-06
1.65795e-06
1.65645e-06
1.65612e-06
1.65601e-06
1.656e-06
1.65603e-06
1.65632e-06
1.65768e-06
1.65812e-06
1.65798e-06
1.65672e-06
1.65805e-06
1.65816e-06
1.64117e-06
1.641e-06
1.64092e-06
1.63923e-06
1.63912e-06
1.63911e-06
1.63916e-06
1.64071e-06
1.64098e-06
1.64092e-06
1.63885e-06
1.6359e-06
1.63591e-06
1.63591e-06
1.6359e-06
1.63864e-06
1.63932e-06
1.63923e-06
1.6359e-06
1.63591e-06
1.63591e-06
1.63592e-06
1.63591e-06
1.6359e-06
1.63898e-06
1.64094e-06
1.64117e-06
1.63913e-06
1.63591e-06
1.63591e-06
1.63592e-06
1.63592e-06
1.63592e-06
1.63591e-06
1.63878e-06
1.64067e-06
1.64098e-06
1.63911e-06
1.63591e-06
1.63591e-06
1.63592e-06
1.63592e-06
1.63592e-06
1.63591e-06
1.63873e-06
1.63947e-06
1.63916e-06
1.6359e-06
1.63591e-06
1.63592e-06
1.63591e-06
1.63591e-06
1.6359e-06
1.63885e-06
1.64079e-06
1.64071e-06
1.63864e-06
1.6359e-06
1.63591e-06
1.63591e-06
1.6359e-06
1.63828e-06
1.63917e-06
1.64101e-06
1.64098e-06
1.63932e-06
1.63898e-06
1.63878e-06
1.63873e-06
1.63885e-06
1.63918e-06
1.64063e-06
1.64094e-06
1.64067e-06
1.63948e-06
1.64078e-06
1.64101e-06
1.62374e-06
1.62358e-06
1.62353e-06
1.6218e-06
1.62168e-06
1.62167e-06
1.62173e-06
1.62332e-06
1.6236e-06
1.62353e-06
1.62141e-06
1.61836e-06
1.61836e-06
1.61836e-06
1.61836e-06
1.62123e-06
1.62191e-06
1.6218e-06
1.61836e-06
1.61836e-06
1.61836e-06
1.61836e-06
1.61836e-06
1.61836e-06
1.62161e-06
1.62353e-06
1.62374e-06
1.62168e-06
1.61836e-06
1.61836e-06
1.61836e-06
1.61836e-06
1.61836e-06
1.61836e-06
1.62142e-06
1.62325e-06
1.62357e-06
1.62167e-06
1.61836e-06
1.61836e-06
1.61836e-06
1.61836e-06
1.61836e-06
1.61836e-06
1.62137e-06
1.62204e-06
1.62173e-06
1.61836e-06
1.61836e-06
1.61836e-06
1.61836e-06
1.61836e-06
1.61836e-06
1.62149e-06
1.62336e-06
1.62332e-06
1.62123e-06
1.61836e-06
1.61836e-06
1.61836e-06
1.61836e-06
1.62092e-06
1.62178e-06
1.62361e-06
1.6236e-06
1.62191e-06
1.62161e-06
1.62142e-06
1.62137e-06
1.62149e-06
1.62178e-06
1.62323e-06
1.62353e-06
1.62325e-06
1.62204e-06
1.62336e-06
1.62361e-06
1.60631e-06
1.60616e-06
1.60608e-06
1.60434e-06
1.60423e-06
1.60421e-06
1.60428e-06
1.60587e-06
1.60615e-06
1.60608e-06
1.60394e-06
1.60086e-06
1.60086e-06
1.60086e-06
1.60086e-06
1.60377e-06
1.60446e-06
1.60434e-06
1.60086e-06
1.60086e-06
1.60086e-06
1.60086e-06
1.60086e-06
1.60086e-06
1.60417e-06
1.60609e-06
1.60631e-06
1.60423e-06
1.60086e-06
1.60086e-06
1.60086e-06
1.60086e-06
1.60086e-06
1.60086e-06
1.60399e-06
1.60581e-06
1.60615e-06
1.60421e-06
1.60086e-06
1.60086e-06
1.60086e-06
1.60086e-06
1.60086e-06
1.60086e-06
1.60395e-06
1.60459e-06
1.60428e-06
1.60086e-06
1.60086e-06
1.60086e-06
1.60086e-06
1.60086e-06
1.60086e-06
1.60406e-06
1.60592e-06
1.60587e-06
1.60377e-06
1.60086e-06
1.60086e-06
1.60086e-06
1.60086e-06
1.60349e-06
1.60433e-06
1.60617e-06
1.60615e-06
1.60446e-06
1.60417e-06
1.604e-06
1.60395e-06
1.60406e-06
1.60434e-06
1.60578e-06
1.60609e-06
1.60581e-06
1.60459e-06
1.60592e-06
1.60617e-06
1.58884e-06
1.5887e-06
1.58861e-06
1.58687e-06
1.58676e-06
1.58674e-06
1.58681e-06
1.58841e-06
1.58868e-06
1.58861e-06
1.58647e-06
1.58338e-06
1.58338e-06
1.58338e-06
1.58338e-06
1.5863e-06
1.58699e-06
1.58687e-06
1.58337e-06
1.58338e-06
1.58338e-06
1.58338e-06
1.58338e-06
1.58338e-06
1.5867e-06
1.58863e-06
1.58884e-06
1.58675e-06
1.58338e-06
1.58338e-06
1.58338e-06
1.58338e-06
1.58338e-06
1.58338e-06
1.58653e-06
1.58834e-06
1.5887e-06
1.58674e-06
1.58338e-06
1.58338e-06
1.58338e-06
1.58338e-06
1.58338e-06
1.58338e-06
1.58649e-06
1.58712e-06
1.58681e-06
1.58338e-06
1.58338e-06
1.58338e-06
1.58338e-06
1.58338e-06
1.58338e-06
1.5866e-06
1.58846e-06
1.58841e-06
1.5863e-06
1.58338e-06
1.58338e-06
1.58338e-06
1.58338e-06
1.58603e-06
1.58686e-06
1.5887e-06
1.58868e-06
1.58699e-06
1.5867e-06
1.58654e-06
1.58649e-06
1.5866e-06
1.58687e-06
1.58831e-06
1.58863e-06
1.58834e-06
1.58712e-06
1.58846e-06
1.5887e-06
1.57137e-06
1.57123e-06
1.57113e-06
1.5694e-06
1.56928e-06
1.56927e-06
1.56933e-06
1.57093e-06
1.57121e-06
1.57113e-06
1.56899e-06
1.5659e-06
1.5659e-06
1.5659e-06
1.5659e-06
1.56882e-06
1.56952e-06
1.5694e-06
1.5659e-06
1.5659e-06
1.5659e-06
1.5659e-06
1.5659e-06
1.5659e-06
1.56923e-06
1.57115e-06
1.57137e-06
1.56928e-06
1.5659e-06
1.5659e-06
1.5659e-06
1.5659e-06
1.5659e-06
1.5659e-06
1.56906e-06
1.57087e-06
1.57121e-06
1.56927e-06
1.5659e-06
1.5659e-06
1.5659e-06
1.5659e-06
1.5659e-06
1.5659e-06
1.56901e-06
1.56964e-06
1.56933e-06
1.5659e-06
1.5659e-06
1.5659e-06
1.5659e-06
1.5659e-06
1.5659e-06
1.56913e-06
1.57098e-06
1.57093e-06
1.56882e-06
1.5659e-06
1.5659e-06
1.5659e-06
1.5659e-06
1.56856e-06
1.56939e-06
1.57123e-06
1.57121e-06
1.56952e-06
1.56923e-06
1.56906e-06
1.56902e-06
1.56913e-06
1.5694e-06
1.57083e-06
1.57115e-06
1.57087e-06
1.56964e-06
1.57098e-06
1.57123e-06
1.55389e-06
1.55375e-06
1.55366e-06
1.55192e-06
1.5518e-06
1.55179e-06
1.55185e-06
1.55345e-06
1.55373e-06
1.55366e-06
1.55151e-06
1.54842e-06
1.54842e-06
1.54842e-06
1.54842e-06
1.55134e-06
1.55204e-06
1.55192e-06
1.54842e-06
1.54842e-06
1.54842e-06
1.54842e-06
1.54842e-06
1.54842e-06
1.55175e-06
1.55367e-06
1.55389e-06
1.5518e-06
1.54842e-06
1.54842e-06
1.54842e-06
1.54842e-06
1.54842e-06
1.54842e-06
1.55158e-06
1.55339e-06
1.55374e-06
1.55179e-06
1.54842e-06
1.54842e-06
1.54842e-06
1.54842e-06
1.54842e-06
1.54842e-06
1.55154e-06
1.55216e-06
1.55185e-06
1.54842e-06
1.54842e-06
1.54842e-06
1.54842e-06
1.54842e-06
1.54842e-06
1.55165e-06
1.55351e-06
1.55345e-06
1.55134e-06
1.54842e-06
1.54842e-06
1.54842e-06
1.54842e-06
1.55108e-06
1.55191e-06
1.55375e-06
1.55373e-06
1.55204e-06
1.55175e-06
1.55158e-06
1.55154e-06
1.55165e-06
1.55192e-06
1.55336e-06
1.55367e-06
1.55339e-06
1.55216e-06
1.55351e-06
1.55375e-06
1.53641e-06
1.53627e-06
1.53618e-06
1.53444e-06
1.53432e-06
1.53431e-06
1.53438e-06
1.53598e-06
1.53625e-06
1.53618e-06
1.53404e-06
1.53094e-06
1.53094e-06
1.53094e-06
1.53094e-06
1.53386e-06
1.53456e-06
1.53444e-06
1.53094e-06
1.53094e-06
1.53094e-06
1.53094e-06
1.53094e-06
1.53094e-06
1.53427e-06
1.53619e-06
1.53641e-06
1.53433e-06
1.53094e-06
1.53094e-06
1.53094e-06
1.53094e-06
1.53094e-06
1.53094e-06
1.53411e-06
1.53591e-06
1.53626e-06
1.53431e-06
1.53094e-06
1.53094e-06
1.53094e-06
1.53094e-06
1.53094e-06
1.53094e-06
1.53406e-06
1.53469e-06
1.53437e-06
1.53094e-06
1.53094e-06
1.53094e-06
1.53094e-06
1.53094e-06
1.53094e-06
1.53417e-06
1.53603e-06
1.53597e-06
1.53386e-06
1.53094e-06
1.53094e-06
1.53094e-06
1.53094e-06
1.5336e-06
1.53443e-06
1.53627e-06
1.53625e-06
1.53456e-06
1.53427e-06
1.53411e-06
1.53406e-06
1.53417e-06
1.53444e-06
1.53588e-06
1.53619e-06
1.53591e-06
1.53468e-06
1.53603e-06
1.53627e-06
1.51894e-06
1.51879e-06
1.5187e-06
1.51696e-06
1.51685e-06
1.51683e-06
1.5169e-06
1.5185e-06
1.51877e-06
1.5187e-06
1.51656e-06
1.51346e-06
1.51346e-06
1.51346e-06
1.51346e-06
1.51639e-06
1.51708e-06
1.51697e-06
1.51346e-06
1.51346e-06
1.51346e-06
1.51346e-06
1.51346e-06
1.51346e-06
1.51679e-06
1.51872e-06
1.51894e-06
1.51685e-06
1.51346e-06
1.51346e-06
1.51346e-06
1.51346e-06
1.51346e-06
1.51346e-06
1.51663e-06
1.51843e-06
1.51878e-06
1.51683e-06
1.51346e-06
1.51346e-06
1.51346e-06
1.51346e-06
1.51346e-06
1.51346e-06
1.51658e-06
1.51721e-06
1.51689e-06
1.51346e-06
1.51346e-06
1.51346e-06
1.51346e-06
1.51346e-06
1.51346e-06
1.51669e-06
1.51855e-06
1.51849e-06
1.51638e-06
1.51346e-06
1.51346e-06
1.51346e-06
1.51346e-06
1.51612e-06
1.51696e-06
1.51879e-06
1.51877e-06
1.51708e-06
1.51679e-06
1.51663e-06
1.51658e-06
1.51669e-06
1.51696e-06
1.5184e-06
1.51872e-06
1.51843e-06
1.51721e-06
1.51855e-06
1.51879e-06
1.50146e-06
1.50131e-06
1.50122e-06
1.49949e-06
1.49937e-06
1.49935e-06
1.49942e-06
1.50102e-06
1.5013e-06
1.50122e-06
1.49908e-06
1.49598e-06
1.49598e-06
1.49598e-06
1.49598e-06
1.49891e-06
1.4996e-06
1.49948e-06
1.49598e-06
1.49598e-06
1.49598e-06
1.49598e-06
1.49598e-06
1.49598e-06
1.49931e-06
1.50124e-06
1.50145e-06
1.49937e-06
1.49598e-06
1.49598e-06
1.49598e-06
1.49598e-06
1.49598e-06
1.49598e-06
1.49915e-06
1.50095e-06
1.50131e-06
1.49935e-06
1.49598e-06
1.49598e-06
1.49598e-06
1.49598e-06
1.49598e-06
1.49598e-06
1.4991e-06
1.49973e-06
1.49942e-06
1.49598e-06
1.49598e-06
1.49598e-06
1.49598e-06
1.49598e-06
1.49598e-06
1.49921e-06
1.50107e-06
1.50102e-06
1.49891e-06
1.49598e-06
1.49598e-06
1.49598e-06
1.49598e-06
1.49864e-06
1.49948e-06
1.50132e-06
1.5013e-06
1.4996e-06
1.49931e-06
1.49915e-06
1.4991e-06
1.49922e-06
1.49948e-06
1.50092e-06
1.50124e-06
1.50095e-06
1.49973e-06
1.50107e-06
1.50132e-06
1.48398e-06
1.48384e-06
1.48374e-06
1.48201e-06
1.48189e-06
1.48188e-06
1.48194e-06
1.48354e-06
1.48382e-06
1.48375e-06
1.4816e-06
1.4785e-06
1.4785e-06
1.4785e-06
1.4785e-06
1.48143e-06
1.48213e-06
1.48201e-06
1.4785e-06
1.4785e-06
1.4785e-06
1.4785e-06
1.4785e-06
1.4785e-06
1.48184e-06
1.48376e-06
1.48398e-06
1.48189e-06
1.4785e-06
1.4785e-06
1.4785e-06
1.4785e-06
1.4785e-06
1.4785e-06
1.48167e-06
1.48347e-06
1.48384e-06
1.48187e-06
1.4785e-06
1.4785e-06
1.4785e-06
1.4785e-06
1.4785e-06
1.4785e-06
1.48162e-06
1.48225e-06
1.48194e-06
1.4785e-06
1.4785e-06
1.4785e-06
1.4785e-06
1.4785e-06
1.4785e-06
1.48174e-06
1.48359e-06
1.48354e-06
1.48143e-06
1.4785e-06
1.4785e-06
1.4785e-06
1.4785e-06
1.48117e-06
1.482e-06
1.48384e-06
1.48382e-06
1.48212e-06
1.48184e-06
1.48167e-06
1.48162e-06
1.48174e-06
1.482e-06
1.48344e-06
1.48376e-06
1.48347e-06
1.48225e-06
1.48359e-06
1.48384e-06
1.4665e-06
1.46636e-06
1.46627e-06
1.46453e-06
1.46441e-06
1.4644e-06
1.46446e-06
1.46606e-06
1.46634e-06
1.46627e-06
1.46412e-06
1.46102e-06
1.46102e-06
1.46102e-06
1.46102e-06
1.46395e-06
1.46465e-06
1.46453e-06
1.46102e-06
1.46102e-06
1.46102e-06
1.46102e-06
1.46102e-06
1.46102e-06
1.46436e-06
1.46628e-06
1.4665e-06
1.46441e-06
1.46102e-06
1.46102e-06
1.46102e-06
1.46102e-06
1.46102e-06
1.46102e-06
1.46419e-06
1.466e-06
1.46635e-06
1.4644e-06
1.46103e-06
1.46102e-06
1.46102e-06
1.46102e-06
1.46102e-06
1.46102e-06
1.46415e-06
1.46477e-06
1.46446e-06
1.46103e-06
1.46103e-06
1.46103e-06
1.46102e-06
1.46102e-06
1.46102e-06
1.46426e-06
1.46611e-06
1.46606e-06
1.46395e-06
1.46103e-06
1.46103e-06
1.46103e-06
1.46102e-06
1.46369e-06
1.46452e-06
1.46636e-06
1.46634e-06
1.46465e-06
1.46436e-06
1.46419e-06
1.46415e-06
1.46426e-06
1.46453e-06
1.46596e-06
1.46628e-06
1.466e-06
1.46477e-06
1.46611e-06
1.46636e-06
1.44902e-06
1.44888e-06
1.44879e-06
1.44705e-06
1.44693e-06
1.44692e-06
1.44698e-06
1.44858e-06
1.44886e-06
1.44879e-06
1.44664e-06
1.44355e-06
1.44355e-06
1.44355e-06
1.44355e-06
1.44647e-06
1.44717e-06
1.44705e-06
1.44354e-06
1.44355e-06
1.44355e-06
1.44355e-06
1.44355e-06
1.44355e-06
1.44688e-06
1.4488e-06
1.44902e-06
1.44693e-06
1.44355e-06
1.44355e-06
1.44355e-06
1.44355e-06
1.44355e-06
1.44355e-06
1.44671e-06
1.44852e-06
1.44886e-06
1.44692e-06
1.44355e-06
1.44355e-06
1.44355e-06
1.44355e-06
1.44355e-06
1.44355e-06
1.44667e-06
1.44729e-06
1.44699e-06
1.44355e-06
1.44355e-06
1.44355e-06
1.44355e-06
1.44355e-06
1.44355e-06
1.44678e-06
1.44863e-06
1.44858e-06
1.44647e-06
1.44355e-06
1.44355e-06
1.44355e-06
1.44355e-06
1.44621e-06
1.44704e-06
1.44888e-06
1.44886e-06
1.44717e-06
1.44688e-06
1.44671e-06
1.44667e-06
1.44678e-06
1.44705e-06
1.44849e-06
1.4488e-06
1.44852e-06
1.44729e-06
1.44864e-06
1.44888e-06
1.43154e-06
1.4314e-06
1.43131e-06
1.42957e-06
1.42945e-06
1.42944e-06
1.4295e-06
1.4311e-06
1.43138e-06
1.43131e-06
1.42916e-06
1.42607e-06
1.42607e-06
1.42607e-06
1.42607e-06
1.42899e-06
1.42969e-06
1.42957e-06
1.42607e-06
1.42607e-06
1.42607e-06
1.42607e-06
1.42607e-06
1.42607e-06
1.4294e-06
1.43132e-06
1.43154e-06
1.42945e-06
1.42607e-06
1.42607e-06
1.42607e-06
1.42607e-06
1.42607e-06
1.42607e-06
1.42923e-06
1.43104e-06
1.43139e-06
1.42944e-06
1.42607e-06
1.42607e-06
1.42607e-06
1.42607e-06
1.42607e-06
1.42607e-06
1.42919e-06
1.42981e-06
1.4295e-06
1.42607e-06
1.42607e-06
1.42607e-06
1.42607e-06
1.42607e-06
1.42607e-06
1.4293e-06
1.43116e-06
1.4311e-06
1.42899e-06
1.42607e-06
1.42607e-06
1.42607e-06
1.42607e-06
1.42873e-06
1.42956e-06
1.4314e-06
1.43138e-06
1.42969e-06
1.4294e-06
1.42924e-06
1.42919e-06
1.4293e-06
1.42957e-06
1.43101e-06
1.43132e-06
1.43104e-06
1.42981e-06
1.43116e-06
1.4314e-06
1.41406e-06
1.41392e-06
1.41383e-06
1.41209e-06
1.41197e-06
1.41196e-06
1.41202e-06
1.41362e-06
1.4139e-06
1.41383e-06
1.41168e-06
1.40859e-06
1.40859e-06
1.40859e-06
1.40859e-06
1.41151e-06
1.41221e-06
1.41209e-06
1.40859e-06
1.40859e-06
1.40859e-06
1.40859e-06
1.40859e-06
1.40859e-06
1.41192e-06
1.41384e-06
1.41406e-06
1.41197e-06
1.40859e-06
1.40859e-06
1.40859e-06
1.40859e-06
1.40859e-06
1.40859e-06
1.41175e-06
1.41356e-06
1.41391e-06
1.41196e-06
1.40859e-06
1.40859e-06
1.40859e-06
1.40859e-06
1.40859e-06
1.40859e-06
1.41171e-06
1.41233e-06
1.41202e-06
1.40859e-06
1.40859e-06
1.40859e-06
1.40859e-06
1.40859e-06
1.40859e-06
1.41182e-06
1.41368e-06
1.41362e-06
1.41151e-06
1.40859e-06
1.40859e-06
1.40859e-06
1.40859e-06
1.41125e-06
1.41208e-06
1.41392e-06
1.4139e-06
1.41221e-06
1.41192e-06
1.41176e-06
1.41171e-06
1.41182e-06
1.41209e-06
1.41353e-06
1.41384e-06
1.41356e-06
1.41233e-06
1.41368e-06
1.41392e-06
1.39658e-06
1.39644e-06
1.39635e-06
1.39461e-06
1.39449e-06
1.39448e-06
1.39454e-06
1.39614e-06
1.39642e-06
1.39635e-06
1.3942e-06
1.39111e-06
1.39111e-06
1.39111e-06
1.39111e-06
1.39403e-06
1.39473e-06
1.39461e-06
1.39111e-06
1.39111e-06
1.39111e-06
1.39111e-06
1.39111e-06
1.39111e-06
1.39444e-06
1.39636e-06
1.39658e-06
1.39449e-06
1.39111e-06
1.39111e-06
1.39111e-06
1.39111e-06
1.39111e-06
1.39111e-06
1.39428e-06
1.39608e-06
1.39644e-06
1.39448e-06
1.39111e-06
1.39111e-06
1.39111e-06
1.39111e-06
1.39111e-06
1.39111e-06
1.39423e-06
1.39486e-06
1.39454e-06
1.39111e-06
1.39111e-06
1.39111e-06
1.39111e-06
1.39111e-06
1.39111e-06
1.39434e-06
1.3962e-06
1.39614e-06
1.39403e-06
1.39111e-06
1.39111e-06
1.39111e-06
1.39111e-06
1.39377e-06
1.3946e-06
1.39644e-06
1.39642e-06
1.39473e-06
1.39444e-06
1.39427e-06
1.39423e-06
1.39434e-06
1.39461e-06
1.39605e-06
1.39636e-06
1.39608e-06
1.39485e-06
1.3962e-06
1.39644e-06
1.3791e-06
1.37896e-06
1.37887e-06
1.37713e-06
1.37701e-06
1.377e-06
1.37707e-06
1.37866e-06
1.37894e-06
1.37887e-06
1.37672e-06
1.37363e-06
1.37363e-06
1.37363e-06
1.37363e-06
1.37655e-06
1.37725e-06
1.37713e-06
1.37363e-06
1.37363e-06
1.37363e-06
1.37363e-06
1.37363e-06
1.37363e-06
1.37696e-06
1.37888e-06
1.3791e-06
1.37701e-06
1.37363e-06
1.37363e-06
1.37363e-06
1.37363e-06
1.37363e-06
1.37363e-06
1.3768e-06
1.3786e-06
1.37896e-06
1.377e-06
1.37363e-06
1.37363e-06
1.37363e-06
1.37363e-06
1.37363e-06
1.37363e-06
1.37675e-06
1.37738e-06
1.37706e-06
1.37363e-06
1.37363e-06
1.37363e-06
1.37363e-06
1.37363e-06
1.37363e-06
1.37686e-06
1.37872e-06
1.37866e-06
1.37655e-06
1.37363e-06
1.37363e-06
1.37363e-06
1.37363e-06
1.37629e-06
1.37713e-06
1.37896e-06
1.37894e-06
1.37725e-06
1.37696e-06
1.37679e-06
1.37675e-06
1.37687e-06
1.37713e-06
1.37857e-06
1.37888e-06
1.3786e-06
1.37738e-06
1.37872e-06
1.37897e-06
1.36162e-06
1.36148e-06
1.36139e-06
1.35965e-06
1.35953e-06
1.35952e-06
1.35959e-06
1.36119e-06
1.36146e-06
1.36139e-06
1.35925e-06
1.35615e-06
1.35615e-06
1.35615e-06
1.35615e-06
1.35908e-06
1.35977e-06
1.35965e-06
1.35615e-06
1.35615e-06
1.35615e-06
1.35615e-06
1.35615e-06
1.35615e-06
1.35948e-06
1.36141e-06
1.36162e-06
1.35953e-06
1.35615e-06
1.35615e-06
1.35615e-06
1.35615e-06
1.35615e-06
1.35615e-06
1.35932e-06
1.36112e-06
1.36148e-06
1.35952e-06
1.35615e-06
1.35615e-06
1.35615e-06
1.35615e-06
1.35615e-06
1.35615e-06
1.35927e-06
1.3599e-06
1.35958e-06
1.35615e-06
1.35615e-06
1.35615e-06
1.35615e-06
1.35615e-06
1.35615e-06
1.35938e-06
1.36124e-06
1.36118e-06
1.35907e-06
1.35615e-06
1.35615e-06
1.35615e-06
1.35615e-06
1.35881e-06
1.35965e-06
1.36148e-06
1.36146e-06
1.35977e-06
1.35948e-06
1.35931e-06
1.35927e-06
1.35938e-06
1.35965e-06
1.36109e-06
1.3614e-06
1.36112e-06
1.35989e-06
1.36124e-06
1.36149e-06
1.34414e-06
1.344e-06
1.34391e-06
1.34217e-06
1.34206e-06
1.34204e-06
1.34211e-06
1.34371e-06
1.34398e-06
1.34391e-06
1.34177e-06
1.33867e-06
1.33867e-06
1.33867e-06
1.33867e-06
1.3416e-06
1.34229e-06
1.34217e-06
1.33867e-06
1.33867e-06
1.33867e-06
1.33867e-06
1.33867e-06
1.33867e-06
1.342e-06
1.34393e-06
1.34414e-06
1.34206e-06
1.33867e-06
1.33867e-06
1.33867e-06
1.33867e-06
1.33867e-06
1.33867e-06
1.34184e-06
1.34364e-06
1.344e-06
1.34204e-06
1.33867e-06
1.33867e-06
1.33867e-06
1.33867e-06
1.33867e-06
1.33867e-06
1.34179e-06
1.34242e-06
1.34211e-06
1.33867e-06
1.33867e-06
1.33867e-06
1.33867e-06
1.33867e-06
1.33867e-06
1.3419e-06
1.34376e-06
1.34371e-06
1.3416e-06
1.33867e-06
1.33867e-06
1.33867e-06
1.33867e-06
1.34133e-06
1.34217e-06
1.344e-06
1.34398e-06
1.34229e-06
1.342e-06
1.34184e-06
1.34179e-06
1.3419e-06
1.34217e-06
1.34361e-06
1.34393e-06
1.34364e-06
1.34242e-06
1.34376e-06
1.344e-06
1.32667e-06
1.32652e-06
1.32643e-06
1.32469e-06
1.32458e-06
1.32456e-06
1.32463e-06
1.32623e-06
1.3265e-06
1.32643e-06
1.32429e-06
1.32119e-06
1.32119e-06
1.32119e-06
1.32119e-06
1.32412e-06
1.32481e-06
1.32469e-06
1.32119e-06
1.32119e-06
1.32119e-06
1.32119e-06
1.32119e-06
1.32119e-06
1.32452e-06
1.32645e-06
1.32667e-06
1.32458e-06
1.32119e-06
1.32119e-06
1.32119e-06
1.32119e-06
1.32119e-06
1.32119e-06
1.32436e-06
1.32616e-06
1.32652e-06
1.32456e-06
1.32119e-06
1.32119e-06
1.32119e-06
1.32119e-06
1.32119e-06
1.32119e-06
1.32431e-06
1.32494e-06
1.32463e-06
1.32119e-06
1.32119e-06
1.32119e-06
1.32119e-06
1.32119e-06
1.32119e-06
1.32442e-06
1.32628e-06
1.32623e-06
1.32412e-06
1.32119e-06
1.32119e-06
1.32119e-06
1.32119e-06
1.32385e-06
1.32469e-06
1.32652e-06
1.32651e-06
1.32481e-06
1.32452e-06
1.32436e-06
1.32431e-06
1.32442e-06
1.32469e-06
1.32613e-06
1.32645e-06
1.32616e-06
1.32494e-06
1.32628e-06
1.32652e-06
1.30919e-06
1.30904e-06
1.30895e-06
1.30721e-06
1.3071e-06
1.30708e-06
1.30715e-06
1.30875e-06
1.30903e-06
1.30895e-06
1.30681e-06
1.30371e-06
1.30371e-06
1.30371e-06
1.30371e-06
1.30664e-06
1.30733e-06
1.30721e-06
1.30371e-06
1.30371e-06
1.30371e-06
1.30371e-06
1.30371e-06
1.30371e-06
1.30704e-06
1.30897e-06
1.30919e-06
1.3071e-06
1.30371e-06
1.30371e-06
1.30371e-06
1.30371e-06
1.30371e-06
1.30371e-06
1.30688e-06
1.30868e-06
1.30905e-06
1.30708e-06
1.30371e-06
1.30371e-06
1.30371e-06
1.30371e-06
1.30371e-06
1.30371e-06
1.30683e-06
1.30746e-06
1.30715e-06
1.30371e-06
1.30371e-06
1.30371e-06
1.30371e-06
1.30371e-06
1.30371e-06
1.30694e-06
1.3088e-06
1.30875e-06
1.30664e-06
1.30371e-06
1.30371e-06
1.30371e-06
1.30371e-06
1.30637e-06
1.30721e-06
1.30904e-06
1.30903e-06
1.30733e-06
1.30704e-06
1.30688e-06
1.30683e-06
1.30695e-06
1.30721e-06
1.30865e-06
1.30897e-06
1.30868e-06
1.30746e-06
1.3088e-06
1.30905e-06
1.29171e-06
1.29156e-06
1.29147e-06
1.28974e-06
1.28962e-06
1.2896e-06
1.28967e-06
1.29127e-06
1.29155e-06
1.29147e-06
1.28933e-06
1.28623e-06
1.28623e-06
1.28623e-06
1.28623e-06
1.28916e-06
1.28985e-06
1.28973e-06
1.28623e-06
1.28623e-06
1.28623e-06
1.28623e-06
1.28623e-06
1.28623e-06
1.28956e-06
1.29149e-06
1.29171e-06
1.28962e-06
1.28623e-06
1.28623e-06
1.28623e-06
1.28623e-06
1.28623e-06
1.28623e-06
1.2894e-06
1.2912e-06
1.29157e-06
1.2896e-06
1.28623e-06
1.28623e-06
1.28623e-06
1.28623e-06
1.28623e-06
1.28623e-06
1.28935e-06
1.28998e-06
1.28967e-06
1.28623e-06
1.28623e-06
1.28623e-06
1.28623e-06
1.28623e-06
1.28623e-06
1.28946e-06
1.29132e-06
1.29127e-06
1.28916e-06
1.28623e-06
1.28623e-06
1.28623e-06
1.28623e-06
1.28889e-06
1.28973e-06
1.29157e-06
1.29155e-06
1.28985e-06
1.28956e-06
1.2894e-06
1.28935e-06
1.28947e-06
1.28973e-06
1.29117e-06
1.29149e-06
1.2912e-06
1.28998e-06
1.29132e-06
1.29157e-06
1.27423e-06
1.27408e-06
1.27399e-06
1.27226e-06
1.27214e-06
1.27212e-06
1.27219e-06
1.27379e-06
1.27407e-06
1.27399e-06
1.27185e-06
1.26875e-06
1.26875e-06
1.26875e-06
1.26875e-06
1.27168e-06
1.27237e-06
1.27225e-06
1.26875e-06
1.26875e-06
1.26875e-06
1.26875e-06
1.26875e-06
1.26875e-06
1.27208e-06
1.27401e-06
1.27423e-06
1.27214e-06
1.26875e-06
1.26875e-06
1.26875e-06
1.26875e-06
1.26875e-06
1.26875e-06
1.27192e-06
1.27372e-06
1.27409e-06
1.27212e-06
1.26875e-06
1.26875e-06
1.26875e-06
1.26875e-06
1.26875e-06
1.26875e-06
1.27187e-06
1.2725e-06
1.27219e-06
1.26875e-06
1.26875e-06
1.26875e-06
1.26875e-06
1.26875e-06
1.26875e-06
1.27198e-06
1.27384e-06
1.27379e-06
1.27168e-06
1.26875e-06
1.26875e-06
1.26875e-06
1.26875e-06
1.27141e-06
1.27225e-06
1.27408e-06
1.27407e-06
1.27237e-06
1.27209e-06
1.27192e-06
1.27187e-06
1.27199e-06
1.27225e-06
1.27369e-06
1.27401e-06
1.27372e-06
1.2725e-06
1.27384e-06
1.27409e-06
1.25675e-06
1.2566e-06
1.25651e-06
1.25478e-06
1.25466e-06
1.25465e-06
1.25471e-06
1.25631e-06
1.25659e-06
1.25651e-06
1.25437e-06
1.25127e-06
1.25127e-06
1.25127e-06
1.25127e-06
1.2542e-06
1.25489e-06
1.25478e-06
1.25127e-06
1.25127e-06
1.25127e-06
1.25127e-06
1.25127e-06
1.25127e-06
1.2546e-06
1.25653e-06
1.25675e-06
1.25466e-06
1.25127e-06
1.25127e-06
1.25127e-06
1.25127e-06
1.25127e-06
1.25127e-06
1.25444e-06
1.25624e-06
1.25661e-06
1.25464e-06
1.25127e-06
1.25127e-06
1.25127e-06
1.25127e-06
1.25127e-06
1.25127e-06
1.25439e-06
1.25502e-06
1.25471e-06
1.25127e-06
1.25127e-06
1.25127e-06
1.25127e-06
1.25127e-06
1.25127e-06
1.2545e-06
1.25636e-06
1.25631e-06
1.2542e-06
1.25127e-06
1.25127e-06
1.25127e-06
1.25127e-06
1.25393e-06
1.25477e-06
1.2566e-06
1.25659e-06
1.2549e-06
1.25461e-06
1.25445e-06
1.25439e-06
1.2545e-06
1.25477e-06
1.25621e-06
1.25653e-06
1.25625e-06
1.25502e-06
1.25636e-06
1.2566e-06
1.23927e-06
1.23913e-06
1.23903e-06
1.2373e-06
1.23718e-06
1.23716e-06
1.23723e-06
1.23883e-06
1.23911e-06
1.23904e-06
1.23689e-06
1.23379e-06
1.23379e-06
1.23379e-06
1.23379e-06
1.23672e-06
1.23741e-06
1.2373e-06
1.23379e-06
1.23379e-06
1.23379e-06
1.23379e-06
1.23379e-06
1.23379e-06
1.23712e-06
1.23905e-06
1.23927e-06
1.23718e-06
1.23379e-06
1.23379e-06
1.23379e-06
1.23379e-06
1.23379e-06
1.23379e-06
1.23696e-06
1.23876e-06
1.23913e-06
1.23716e-06
1.23379e-06
1.23379e-06
1.23379e-06
1.23379e-06
1.23379e-06
1.23379e-06
1.23691e-06
1.23754e-06
1.23723e-06
1.23379e-06
1.23379e-06
1.23379e-06
1.23379e-06
1.23379e-06
1.23379e-06
1.23702e-06
1.23888e-06
1.23883e-06
1.23672e-06
1.23379e-06
1.23379e-06
1.23379e-06
1.23379e-06
1.23645e-06
1.23729e-06
1.23913e-06
1.23911e-06
1.23741e-06
1.23713e-06
1.23696e-06
1.23691e-06
1.23703e-06
1.23729e-06
1.23873e-06
1.23905e-06
1.23876e-06
1.23754e-06
1.23888e-06
1.23913e-06
1.22179e-06
1.22165e-06
1.22155e-06
1.21982e-06
1.2197e-06
1.21969e-06
1.21975e-06
1.22135e-06
1.22163e-06
1.22156e-06
1.21941e-06
1.21631e-06
1.21631e-06
1.21631e-06
1.21631e-06
1.21924e-06
1.21993e-06
1.21982e-06
1.21631e-06
1.21631e-06
1.21631e-06
1.21631e-06
1.21631e-06
1.21631e-06
1.21965e-06
1.22157e-06
1.22179e-06
1.2197e-06
1.21631e-06
1.21631e-06
1.21631e-06
1.21631e-06
1.21631e-06
1.21631e-06
1.21948e-06
1.22128e-06
1.22165e-06
1.21968e-06
1.21631e-06
1.21631e-06
1.21631e-06
1.21631e-06
1.21631e-06
1.21631e-06
1.21943e-06
1.22006e-06
1.21975e-06
1.21631e-06
1.21631e-06
1.21631e-06
1.21631e-06
1.21631e-06
1.21631e-06
1.21954e-06
1.2214e-06
1.22135e-06
1.21924e-06
1.21631e-06
1.21631e-06
1.21631e-06
1.21631e-06
1.21897e-06
1.21981e-06
1.22165e-06
1.22163e-06
1.21993e-06
1.21965e-06
1.21948e-06
1.21943e-06
1.21955e-06
1.21981e-06
1.22125e-06
1.22157e-06
1.22128e-06
1.22006e-06
1.2214e-06
1.22165e-06
1.20431e-06
1.20417e-06
1.20407e-06
1.20234e-06
1.20222e-06
1.20221e-06
1.20227e-06
1.20387e-06
1.20415e-06
1.20408e-06
1.20193e-06
1.19883e-06
1.19883e-06
1.19883e-06
1.19883e-06
1.20176e-06
1.20246e-06
1.20234e-06
1.19883e-06
1.19883e-06
1.19883e-06
1.19883e-06
1.19883e-06
1.19883e-06
1.20217e-06
1.20409e-06
1.20431e-06
1.20222e-06
1.19883e-06
1.19883e-06
1.19883e-06
1.19883e-06
1.19883e-06
1.19883e-06
1.202e-06
1.2038e-06
1.20415e-06
1.20221e-06
1.19883e-06
1.19883e-06
1.19883e-06
1.19883e-06
1.19883e-06
1.19883e-06
1.20195e-06
1.20258e-06
1.20227e-06
1.19883e-06
1.19883e-06
1.19883e-06
1.19883e-06
1.19883e-06
1.19883e-06
1.20207e-06
1.20392e-06
1.20387e-06
1.20176e-06
1.19883e-06
1.19883e-06
1.19883e-06
1.19883e-06
1.2015e-06
1.20233e-06
1.20417e-06
1.20415e-06
1.20245e-06
1.20217e-06
1.202e-06
1.20195e-06
1.20207e-06
1.20233e-06
1.20377e-06
1.20409e-06
1.2038e-06
1.20258e-06
1.20392e-06
1.20417e-06
1.18683e-06
1.18669e-06
1.1866e-06
1.18486e-06
1.18474e-06
1.18473e-06
1.18479e-06
1.18639e-06
1.18667e-06
1.1866e-06
1.18445e-06
1.18135e-06
1.18135e-06
1.18135e-06
1.18135e-06
1.18428e-06
1.18498e-06
1.18486e-06
1.18136e-06
1.18135e-06
1.18135e-06
1.18135e-06
1.18135e-06
1.18135e-06
1.18469e-06
1.18661e-06
1.18684e-06
1.18475e-06
1.18135e-06
1.18135e-06
1.18135e-06
1.18135e-06
1.18135e-06
1.18135e-06
1.18452e-06
1.18632e-06
1.18667e-06
1.18472e-06
1.18135e-06
1.18135e-06
1.18135e-06
1.18135e-06
1.18135e-06
1.18135e-06
1.18447e-06
1.1851e-06
1.18479e-06
1.18135e-06
1.18135e-06
1.18135e-06
1.18135e-06
1.18135e-06
1.18135e-06
1.18459e-06
1.18644e-06
1.18639e-06
1.18428e-06
1.18135e-06
1.18135e-06
1.18135e-06
1.18135e-06
1.18402e-06
1.18485e-06
1.18669e-06
1.18667e-06
1.18497e-06
1.18469e-06
1.18452e-06
1.18447e-06
1.18459e-06
1.18486e-06
1.18629e-06
1.18661e-06
1.18632e-06
1.1851e-06
1.18644e-06
1.18669e-06
1.16935e-06
1.16921e-06
1.16912e-06
1.16738e-06
1.16726e-06
1.16725e-06
1.16731e-06
1.16891e-06
1.16919e-06
1.16912e-06
1.16697e-06
1.16388e-06
1.16387e-06
1.16387e-06
1.16387e-06
1.1668e-06
1.1675e-06
1.16738e-06
1.16388e-06
1.16387e-06
1.16387e-06
1.16387e-06
1.16387e-06
1.16387e-06
1.16721e-06
1.16913e-06
1.16935e-06
1.16726e-06
1.16387e-06
1.16387e-06
1.16387e-06
1.16387e-06
1.16387e-06
1.16387e-06
1.16704e-06
1.16885e-06
1.1692e-06
1.16725e-06
1.16387e-06
1.16387e-06
1.16387e-06
1.16387e-06
1.16387e-06
1.16387e-06
1.167e-06
1.16762e-06
1.16731e-06
1.16387e-06
1.16387e-06
1.16387e-06
1.16387e-06
1.16387e-06
1.16387e-06
1.16711e-06
1.16896e-06
1.16891e-06
1.1668e-06
1.16387e-06
1.16387e-06
1.16387e-06
1.16387e-06
1.16654e-06
1.16737e-06
1.16921e-06
1.16919e-06
1.1675e-06
1.16721e-06
1.16704e-06
1.167e-06
1.16711e-06
1.16738e-06
1.16881e-06
1.16913e-06
1.16885e-06
1.16762e-06
1.16896e-06
1.16921e-06
1.15187e-06
1.15173e-06
1.15164e-06
1.1499e-06
1.14978e-06
1.14977e-06
1.14983e-06
1.15143e-06
1.15171e-06
1.15164e-06
1.14949e-06
1.1464e-06
1.1464e-06
1.1464e-06
1.1464e-06
1.14932e-06
1.15002e-06
1.1499e-06
1.1464e-06
1.1464e-06
1.1464e-06
1.1464e-06
1.1464e-06
1.1464e-06
1.14973e-06
1.15165e-06
1.15187e-06
1.14978e-06
1.1464e-06
1.1464e-06
1.1464e-06
1.1464e-06
1.1464e-06
1.1464e-06
1.14956e-06
1.15137e-06
1.15173e-06
1.14977e-06
1.1464e-06
1.1464e-06
1.1464e-06
1.1464e-06
1.1464e-06
1.1464e-06
1.14952e-06
1.15014e-06
1.14983e-06
1.1464e-06
1.1464e-06
1.1464e-06
1.1464e-06
1.1464e-06
1.1464e-06
1.14963e-06
1.15148e-06
1.15143e-06
1.14932e-06
1.1464e-06
1.1464e-06
1.1464e-06
1.1464e-06
1.14906e-06
1.14989e-06
1.15173e-06
1.15171e-06
1.15002e-06
1.14973e-06
1.14956e-06
1.14952e-06
1.14963e-06
1.1499e-06
1.15134e-06
1.15165e-06
1.15137e-06
1.15014e-06
1.15148e-06
1.15173e-06
1.13439e-06
1.13425e-06
1.13416e-06
1.13242e-06
1.1323e-06
1.13229e-06
1.13235e-06
1.13395e-06
1.13423e-06
1.13416e-06
1.13201e-06
1.12892e-06
1.12892e-06
1.12892e-06
1.12892e-06
1.13184e-06
1.13254e-06
1.13242e-06
1.12892e-06
1.12892e-06
1.12892e-06
1.12892e-06
1.12892e-06
1.12892e-06
1.13225e-06
1.13417e-06
1.13439e-06
1.1323e-06
1.12892e-06
1.12892e-06
1.12892e-06
1.12892e-06
1.12892e-06
1.12892e-06
1.13208e-06
1.13389e-06
1.13425e-06
1.13229e-06
1.12892e-06
1.12892e-06
1.12892e-06
1.12892e-06
1.12892e-06
1.12892e-06
1.13204e-06
1.13266e-06
1.13235e-06
1.12892e-06
1.12892e-06
1.12892e-06
1.12892e-06
1.12892e-06
1.12892e-06
1.13215e-06
1.134e-06
1.13395e-06
1.13184e-06
1.12892e-06
1.12892e-06
1.12892e-06
1.12892e-06
1.13158e-06
1.13241e-06
1.13425e-06
1.13423e-06
1.13254e-06
1.13225e-06
1.13208e-06