/*--------------------------------*- C++ -*----------------------------------*\
| =========                 |                                                 |
| \\      /  F ield         | OpenFOAM: The Open Source CFD Toolbox           |
|  \\    /   O peration     | Version:  v2012                                 |
|   \\  /    A nd           | Website:  www.openfoam.com                      |
|    \\/     M anipulation  |                                                 |
\*---------------------------------------------------------------------------*/
FoamFile
{
    version     2.0;
    format      ascii;
    class       volScalarField;
    location    "12.5";
    object      p;
}
// * * * * * * * * * * * * * * * * * * * * * * * * * * * * * * * * * * * * * //

dimensions      [0 2 -2 0 0 0 0];


internalField   nonuniform List<scalar> 
244288
(
1.51494e-06
1.51511e-06
1.51507e-06
1.51496e-06
1.5149e-06
1.51498e-06
1.51508e-06
1.51511e-06
1.51514e-06
1.51491e-06
1.51464e-06
1.51454e-06
1.51467e-06
1.51495e-06
1.51515e-06
1.51507e-06
1.51491e-06
1.51449e-06
1.51414e-06
1.51401e-06
1.51417e-06
1.51455e-06
1.51495e-06
1.51507e-06
1.51496e-06
1.51464e-06
1.51414e-06
1.51374e-06
1.5136e-06
1.51377e-06
1.5142e-06
1.5147e-06
1.51497e-06
1.51494e-06
1.5149e-06
1.51454e-06
1.51401e-06
1.5136e-06
1.51346e-06
1.51364e-06
1.51408e-06
1.51461e-06
1.51492e-06
1.51498e-06
1.51467e-06
1.51417e-06
1.51377e-06
1.51364e-06
1.51381e-06
1.51423e-06
1.51473e-06
1.51499e-06
1.51508e-06
1.51495e-06
1.51455e-06
1.5142e-06
1.51408e-06
1.51423e-06
1.5146e-06
1.51499e-06
1.51507e-06
1.51515e-06
1.51495e-06
1.5147e-06
1.51461e-06
1.51473e-06
1.51499e-06
1.51515e-06
1.51507e-06
1.51497e-06
1.51492e-06
1.51499e-06
1.51507e-06
1.49169e-06
1.49131e-06
1.49113e-06
1.48971e-06
1.48963e-06
1.48963e-06
1.48964e-06
1.49107e-06
1.49119e-06
1.49113e-06
1.48927e-06
1.48679e-06
1.48679e-06
1.48679e-06
1.48679e-06
1.4893e-06
1.48978e-06
1.48971e-06
1.48679e-06
1.48674e-06
1.48677e-06
1.48677e-06
1.48674e-06
1.48679e-06
1.48969e-06
1.49133e-06
1.49169e-06
1.48963e-06
1.48679e-06
1.48677e-06
1.48682e-06
1.48682e-06
1.48677e-06
1.48679e-06
1.48961e-06
1.49105e-06
1.49131e-06
1.48963e-06
1.48679e-06
1.48677e-06
1.48682e-06
1.48682e-06
1.48677e-06
1.48679e-06
1.48958e-06
1.48994e-06
1.48964e-06
1.48679e-06
1.48674e-06
1.48677e-06
1.48677e-06
1.48674e-06
1.48679e-06
1.48964e-06
1.4912e-06
1.49107e-06
1.4893e-06
1.48679e-06
1.48679e-06
1.48679e-06
1.48679e-06
1.48921e-06
1.48979e-06
1.49135e-06
1.49119e-06
1.48978e-06
1.48969e-06
1.48961e-06
1.48958e-06
1.48964e-06
1.48979e-06
1.49106e-06
1.49133e-06
1.49105e-06
1.48994e-06
1.4912e-06
1.49135e-06
1.47581e-06
1.47567e-06
1.47559e-06
1.47403e-06
1.47394e-06
1.47391e-06
1.47399e-06
1.47548e-06
1.47568e-06
1.47559e-06
1.47358e-06
1.47092e-06
1.47092e-06
1.47092e-06
1.47092e-06
1.47361e-06
1.4742e-06
1.47402e-06
1.47092e-06
1.4709e-06
1.4709e-06
1.4709e-06
1.4709e-06
1.47092e-06
1.47407e-06
1.47574e-06
1.4758e-06
1.47394e-06
1.47092e-06
1.4709e-06
1.4709e-06
1.4709e-06
1.4709e-06
1.47092e-06
1.47399e-06
1.47547e-06
1.47567e-06
1.47391e-06
1.47092e-06
1.4709e-06
1.4709e-06
1.4709e-06
1.4709e-06
1.47092e-06
1.47395e-06
1.47429e-06
1.47399e-06
1.47092e-06
1.4709e-06
1.4709e-06
1.4709e-06
1.4709e-06
1.47092e-06
1.47403e-06
1.47564e-06
1.47548e-06
1.47361e-06
1.47092e-06
1.47092e-06
1.47092e-06
1.47092e-06
1.47358e-06
1.47416e-06
1.47577e-06
1.47568e-06
1.4742e-06
1.47407e-06
1.47399e-06
1.47395e-06
1.47403e-06
1.47416e-06
1.47552e-06
1.47574e-06
1.47547e-06
1.47429e-06
1.47564e-06
1.47577e-06
1.46e-06
1.45987e-06
1.45977e-06
1.4582e-06
1.45811e-06
1.45807e-06
1.45816e-06
1.45967e-06
1.45987e-06
1.45977e-06
1.45773e-06
1.45507e-06
1.45507e-06
1.45507e-06
1.45507e-06
1.45777e-06
1.45838e-06
1.4582e-06
1.45507e-06
1.45506e-06
1.45506e-06
1.45506e-06
1.45506e-06
1.45507e-06
1.45826e-06
1.45993e-06
1.46e-06
1.45811e-06
1.45507e-06
1.45506e-06
1.45506e-06
1.45506e-06
1.45506e-06
1.45507e-06
1.45819e-06
1.45967e-06
1.45987e-06
1.45807e-06
1.45507e-06
1.45506e-06
1.45506e-06
1.45506e-06
1.45506e-06
1.45507e-06
1.45816e-06
1.45849e-06
1.45816e-06
1.45507e-06
1.45506e-06
1.45506e-06
1.45506e-06
1.45506e-06
1.45507e-06
1.45823e-06
1.45984e-06
1.45967e-06
1.45777e-06
1.45507e-06
1.45507e-06
1.45507e-06
1.45507e-06
1.45779e-06
1.45835e-06
1.45996e-06
1.45987e-06
1.45838e-06
1.45826e-06
1.45819e-06
1.45816e-06
1.45823e-06
1.45835e-06
1.45972e-06
1.45993e-06
1.45967e-06
1.45849e-06
1.45984e-06
1.45996e-06
1.44417e-06
1.44404e-06
1.44393e-06
1.44236e-06
1.44227e-06
1.44222e-06
1.44232e-06
1.44383e-06
1.44403e-06
1.44393e-06
1.44189e-06
1.43923e-06
1.43923e-06
1.43923e-06
1.43923e-06
1.44192e-06
1.44254e-06
1.44236e-06
1.43923e-06
1.43922e-06
1.43922e-06
1.43922e-06
1.43922e-06
1.43923e-06
1.44242e-06
1.44409e-06
1.44417e-06
1.44227e-06
1.43923e-06
1.43922e-06
1.43923e-06
1.43923e-06
1.43922e-06
1.43923e-06
1.44236e-06
1.44384e-06
1.44404e-06
1.44222e-06
1.43923e-06
1.43922e-06
1.43923e-06
1.43923e-06
1.43922e-06
1.43923e-06
1.44233e-06
1.44266e-06
1.44232e-06
1.43923e-06
1.43922e-06
1.43922e-06
1.43922e-06
1.43922e-06
1.43923e-06
1.44239e-06
1.44401e-06
1.44383e-06
1.44192e-06
1.43923e-06
1.43923e-06
1.43923e-06
1.43923e-06
1.44196e-06
1.44252e-06
1.44413e-06
1.44403e-06
1.44254e-06
1.44242e-06
1.44236e-06
1.44233e-06
1.44239e-06
1.44252e-06
1.4439e-06
1.44409e-06
1.44384e-06
1.44266e-06
1.44401e-06
1.44413e-06
1.42833e-06
1.4282e-06
1.4281e-06
1.42652e-06
1.42643e-06
1.42639e-06
1.42648e-06
1.428e-06
1.4282e-06
1.4281e-06
1.42605e-06
1.42339e-06
1.42339e-06
1.42339e-06
1.42339e-06
1.42608e-06
1.42671e-06
1.42652e-06
1.42339e-06
1.42339e-06
1.42339e-06
1.42339e-06
1.42339e-06
1.42339e-06
1.42659e-06
1.42826e-06
1.42833e-06
1.42643e-06
1.42339e-06
1.42339e-06
1.42339e-06
1.42339e-06
1.42339e-06
1.42339e-06
1.42653e-06
1.42801e-06
1.4282e-06
1.42639e-06
1.42339e-06
1.42339e-06
1.42339e-06
1.42339e-06
1.42339e-06
1.42339e-06
1.42649e-06
1.42683e-06
1.42648e-06
1.42339e-06
1.42339e-06
1.42339e-06
1.42339e-06
1.42339e-06
1.42339e-06
1.42656e-06
1.42817e-06
1.428e-06
1.42608e-06
1.42339e-06
1.42339e-06
1.42339e-06
1.42339e-06
1.42612e-06
1.42668e-06
1.42829e-06
1.4282e-06
1.42671e-06
1.42659e-06
1.42653e-06
1.42649e-06
1.42656e-06
1.42668e-06
1.42806e-06
1.42826e-06
1.42801e-06
1.42683e-06
1.42817e-06
1.42829e-06
1.41249e-06
1.41236e-06
1.41226e-06
1.41068e-06
1.41059e-06
1.41055e-06
1.41064e-06
1.41216e-06
1.41236e-06
1.41226e-06
1.41021e-06
1.40755e-06
1.40755e-06
1.40755e-06
1.40755e-06
1.41024e-06
1.41087e-06
1.41068e-06
1.40755e-06
1.40755e-06
1.40755e-06
1.40755e-06
1.40755e-06
1.40755e-06
1.41075e-06
1.41242e-06
1.4125e-06
1.41059e-06
1.40755e-06
1.40755e-06
1.40755e-06
1.40755e-06
1.40755e-06
1.40755e-06
1.41069e-06
1.41217e-06
1.41237e-06
1.41055e-06
1.40755e-06
1.40755e-06
1.40755e-06
1.40755e-06
1.40755e-06
1.40755e-06
1.41065e-06
1.41099e-06
1.41064e-06
1.40755e-06
1.40755e-06
1.40755e-06
1.40755e-06
1.40755e-06
1.40755e-06
1.41072e-06
1.41233e-06
1.41216e-06
1.41024e-06
1.40755e-06
1.40755e-06
1.40755e-06
1.40755e-06
1.41029e-06
1.41085e-06
1.41245e-06
1.41236e-06
1.41087e-06
1.41075e-06
1.41069e-06
1.41065e-06
1.41072e-06
1.41085e-06
1.41222e-06
1.41242e-06
1.41217e-06
1.41099e-06
1.41233e-06
1.41245e-06
1.39666e-06
1.39652e-06
1.39642e-06
1.39484e-06
1.39475e-06
1.39471e-06
1.3948e-06
1.39632e-06
1.39652e-06
1.39642e-06
1.39437e-06
1.39171e-06
1.39171e-06
1.39171e-06
1.39171e-06
1.3944e-06
1.39503e-06
1.39484e-06
1.39171e-06
1.39171e-06
1.39171e-06
1.39171e-06
1.39171e-06
1.39171e-06
1.39491e-06
1.39658e-06
1.39666e-06
1.39475e-06
1.39171e-06
1.39171e-06
1.39171e-06
1.39171e-06
1.39171e-06
1.39171e-06
1.39485e-06
1.39633e-06
1.39652e-06
1.39471e-06
1.39171e-06
1.39171e-06
1.39171e-06
1.39171e-06
1.39171e-06
1.39171e-06
1.39482e-06
1.39515e-06
1.3948e-06
1.39171e-06
1.39171e-06
1.39171e-06
1.39171e-06
1.39171e-06
1.39171e-06
1.39488e-06
1.3965e-06
1.39632e-06
1.3944e-06
1.39171e-06
1.39171e-06
1.39171e-06
1.39171e-06
1.39445e-06
1.39501e-06
1.39661e-06
1.39652e-06
1.39503e-06
1.39491e-06
1.39485e-06
1.39482e-06
1.39488e-06
1.39501e-06
1.39638e-06
1.39658e-06
1.39633e-06
1.39515e-06
1.3965e-06
1.39661e-06
1.38082e-06
1.38068e-06
1.38058e-06
1.379e-06
1.37891e-06
1.37887e-06
1.37897e-06
1.38048e-06
1.38068e-06
1.38058e-06
1.37854e-06
1.37587e-06
1.37587e-06
1.37587e-06
1.37587e-06
1.37857e-06
1.37919e-06
1.379e-06
1.37587e-06
1.37587e-06
1.37587e-06
1.37587e-06
1.37587e-06
1.37587e-06
1.37907e-06
1.38074e-06
1.38082e-06
1.37891e-06
1.37587e-06
1.37587e-06
1.37587e-06
1.37587e-06
1.37587e-06
1.37587e-06
1.37901e-06
1.38049e-06
1.38068e-06
1.37887e-06
1.37587e-06
1.37587e-06
1.37587e-06
1.37587e-06
1.37587e-06
1.37587e-06
1.37898e-06
1.37931e-06
1.37897e-06
1.37587e-06
1.37587e-06
1.37587e-06
1.37587e-06
1.37587e-06
1.37587e-06
1.37904e-06
1.38066e-06
1.38048e-06
1.37857e-06
1.37587e-06
1.37587e-06
1.37587e-06
1.37587e-06
1.37861e-06
1.37917e-06
1.38077e-06
1.38068e-06
1.37919e-06
1.37907e-06
1.37901e-06
1.37898e-06
1.37904e-06
1.37917e-06
1.38055e-06
1.38074e-06
1.38049e-06
1.37931e-06
1.38066e-06
1.38077e-06
1.36498e-06
1.36485e-06
1.36474e-06
1.36316e-06
1.36307e-06
1.36303e-06
1.36313e-06
1.36464e-06
1.36484e-06
1.36474e-06
1.3627e-06
1.36003e-06
1.36003e-06
1.36003e-06
1.36003e-06
1.36273e-06
1.36335e-06
1.36317e-06
1.36003e-06
1.36003e-06
1.36003e-06
1.36003e-06
1.36003e-06
1.36003e-06
1.36323e-06
1.3649e-06
1.36497e-06
1.36308e-06
1.36003e-06
1.36003e-06
1.36003e-06
1.36003e-06
1.36003e-06
1.36003e-06
1.36317e-06
1.36465e-06
1.36484e-06
1.36303e-06
1.36003e-06
1.36003e-06
1.36003e-06
1.36003e-06
1.36003e-06
1.36003e-06
1.36314e-06
1.36348e-06
1.36313e-06
1.36003e-06
1.36003e-06
1.36003e-06
1.36003e-06
1.36003e-06
1.36003e-06
1.3632e-06
1.36482e-06
1.36464e-06
1.36273e-06
1.36003e-06
1.36003e-06
1.36003e-06
1.36003e-06
1.36277e-06
1.36333e-06
1.36493e-06
1.36484e-06
1.36335e-06
1.36323e-06
1.36317e-06
1.36314e-06
1.3632e-06
1.36333e-06
1.36471e-06
1.3649e-06
1.36465e-06
1.36348e-06
1.36482e-06
1.36493e-06
1.34914e-06
1.34901e-06
1.34891e-06
1.34733e-06
1.34723e-06
1.34719e-06
1.34729e-06
1.3488e-06
1.349e-06
1.34891e-06
1.34686e-06
1.34419e-06
1.34419e-06
1.34419e-06
1.34419e-06
1.34689e-06
1.34751e-06
1.34733e-06
1.34419e-06
1.34419e-06
1.34419e-06
1.34419e-06
1.34419e-06
1.34419e-06
1.3474e-06
1.34907e-06
1.34914e-06
1.34723e-06
1.34419e-06
1.34419e-06
1.34419e-06
1.34419e-06
1.34419e-06
1.34419e-06
1.34733e-06
1.34882e-06
1.34901e-06
1.34719e-06
1.34419e-06
1.34419e-06
1.34419e-06
1.34419e-06
1.34419e-06
1.34419e-06
1.3473e-06
1.34764e-06
1.34729e-06
1.34419e-06
1.34419e-06
1.34419e-06
1.34419e-06
1.34419e-06
1.34419e-06
1.34737e-06
1.34898e-06
1.3488e-06
1.34689e-06
1.34419e-06
1.34419e-06
1.34419e-06
1.34419e-06
1.34693e-06
1.34749e-06
1.3491e-06
1.349e-06
1.34751e-06
1.3474e-06
1.34733e-06
1.3473e-06
1.34737e-06
1.34749e-06
1.34887e-06
1.34907e-06
1.34882e-06
1.34764e-06
1.34898e-06
1.3491e-06
1.3333e-06
1.33317e-06
1.33307e-06
1.33149e-06
1.3314e-06
1.33136e-06
1.33145e-06
1.33297e-06
1.33317e-06
1.33307e-06
1.33102e-06
1.32835e-06
1.32835e-06
1.32835e-06
1.32835e-06
1.33105e-06
1.33168e-06
1.33149e-06
1.32835e-06
1.32836e-06
1.32836e-06
1.32835e-06
1.32836e-06
1.32835e-06
1.33156e-06
1.33323e-06
1.3333e-06
1.3314e-06
1.32835e-06
1.32835e-06
1.32835e-06
1.32835e-06
1.32835e-06
1.32835e-06
1.3315e-06
1.33298e-06
1.33317e-06
1.33135e-06
1.32835e-06
1.32835e-06
1.32835e-06
1.32835e-06
1.32835e-06
1.32835e-06
1.33146e-06
1.3318e-06
1.33145e-06
1.32835e-06
1.32835e-06
1.32835e-06
1.32835e-06
1.32836e-06
1.32835e-06
1.33153e-06
1.33314e-06
1.33297e-06
1.33105e-06
1.32835e-06
1.32835e-06
1.32835e-06
1.32835e-06
1.33109e-06
1.33166e-06
1.33326e-06
1.33317e-06
1.33168e-06
1.33156e-06
1.3315e-06
1.33146e-06
1.33153e-06
1.33166e-06
1.33303e-06
1.33323e-06
1.33298e-06
1.3318e-06
1.33314e-06
1.33326e-06
1.31746e-06
1.31733e-06
1.31723e-06
1.31565e-06
1.31556e-06
1.31552e-06
1.31561e-06
1.31713e-06
1.31733e-06
1.31723e-06
1.31518e-06
1.31252e-06
1.31252e-06
1.31252e-06
1.31252e-06
1.31521e-06
1.31584e-06
1.31565e-06
1.31252e-06
1.31252e-06
1.31252e-06
1.31252e-06
1.31252e-06
1.31252e-06
1.31572e-06
1.31739e-06
1.31746e-06
1.31556e-06
1.31252e-06
1.31252e-06
1.31252e-06
1.31252e-06
1.31252e-06
1.31252e-06
1.31566e-06
1.31714e-06
1.31733e-06
1.31552e-06
1.31252e-06
1.31252e-06
1.31252e-06
1.31252e-06
1.31252e-06
1.31252e-06
1.31563e-06
1.31596e-06
1.31561e-06
1.31252e-06
1.31252e-06
1.31252e-06
1.31252e-06
1.31252e-06
1.31252e-06
1.31569e-06
1.3173e-06
1.31713e-06
1.31521e-06
1.31252e-06
1.31252e-06
1.31252e-06
1.31252e-06
1.31526e-06
1.31582e-06
1.31742e-06
1.31733e-06
1.31584e-06
1.31572e-06
1.31566e-06
1.31563e-06
1.31569e-06
1.31582e-06
1.31719e-06
1.31739e-06
1.31714e-06
1.31596e-06
1.3173e-06
1.31742e-06
1.30163e-06
1.30149e-06
1.30139e-06
1.29981e-06
1.29972e-06
1.29968e-06
1.29978e-06
1.30129e-06
1.30149e-06
1.30139e-06
1.29934e-06
1.29668e-06
1.29668e-06
1.29668e-06
1.29668e-06
1.29938e-06
1.3e-06
1.29981e-06
1.29668e-06
1.29668e-06
1.29668e-06
1.29668e-06
1.29668e-06
1.29668e-06
1.29988e-06
1.30155e-06
1.30163e-06
1.29972e-06
1.29668e-06
1.29668e-06
1.29668e-06
1.29668e-06
1.29668e-06
1.29668e-06
1.29982e-06
1.3013e-06
1.3015e-06
1.29967e-06
1.29668e-06
1.29668e-06
1.29668e-06
1.29668e-06
1.29668e-06
1.29668e-06
1.29979e-06
1.30012e-06
1.29978e-06
1.29668e-06
1.29668e-06
1.29668e-06
1.29668e-06
1.29668e-06
1.29668e-06
1.29985e-06
1.30147e-06
1.30129e-06
1.29938e-06
1.29668e-06
1.29668e-06
1.29668e-06
1.29668e-06
1.29942e-06
1.29998e-06
1.30158e-06
1.30149e-06
1.3e-06
1.29988e-06
1.29982e-06
1.29979e-06
1.29985e-06
1.29998e-06
1.30135e-06
1.30155e-06
1.3013e-06
1.30012e-06
1.30147e-06
1.30158e-06
1.28579e-06
1.28566e-06
1.28555e-06
1.28397e-06
1.28388e-06
1.28384e-06
1.28394e-06
1.28545e-06
1.28565e-06
1.28555e-06
1.28351e-06
1.28084e-06
1.28084e-06
1.28084e-06
1.28084e-06
1.28354e-06
1.28416e-06
1.28397e-06
1.28084e-06
1.28084e-06
1.28084e-06
1.28084e-06
1.28084e-06
1.28084e-06
1.28404e-06
1.28571e-06
1.28579e-06
1.28388e-06
1.28084e-06
1.28084e-06
1.28084e-06
1.28084e-06
1.28084e-06
1.28084e-06
1.28398e-06
1.28546e-06
1.28566e-06
1.28384e-06
1.28084e-06
1.28084e-06
1.28084e-06
1.28084e-06
1.28084e-06
1.28084e-06
1.28395e-06
1.28428e-06
1.28394e-06
1.28084e-06
1.28084e-06
1.28084e-06
1.28084e-06
1.28084e-06
1.28084e-06
1.28401e-06
1.28563e-06
1.28545e-06
1.28354e-06
1.28084e-06
1.28084e-06
1.28084e-06
1.28084e-06
1.28358e-06
1.28414e-06
1.28574e-06
1.28565e-06
1.28416e-06
1.28404e-06
1.28398e-06
1.28395e-06
1.28401e-06
1.28414e-06
1.28552e-06
1.28571e-06
1.28546e-06
1.28428e-06
1.28563e-06
1.28574e-06
1.26995e-06
1.26982e-06
1.26971e-06
1.26814e-06
1.26804e-06
1.268e-06
1.2681e-06
1.26961e-06
1.26981e-06
1.26971e-06
1.26767e-06
1.265e-06
1.265e-06
1.265e-06
1.265e-06
1.2677e-06
1.26832e-06
1.26814e-06
1.265e-06
1.265e-06
1.265e-06
1.265e-06
1.265e-06
1.265e-06
1.2682e-06
1.26988e-06
1.26995e-06
1.26804e-06
1.265e-06
1.265e-06
1.265e-06
1.265e-06
1.265e-06
1.265e-06
1.26814e-06
1.26962e-06
1.26982e-06
1.268e-06
1.265e-06
1.265e-06
1.265e-06
1.265e-06
1.265e-06
1.265e-06
1.26811e-06
1.26845e-06
1.2681e-06
1.265e-06
1.265e-06
1.265e-06
1.265e-06
1.265e-06
1.265e-06
1.26818e-06
1.26979e-06
1.26961e-06
1.2677e-06
1.265e-06
1.265e-06
1.265e-06
1.265e-06
1.26774e-06
1.2683e-06
1.26991e-06
1.26981e-06
1.26832e-06
1.2682e-06
1.26814e-06
1.26811e-06
1.26818e-06
1.2683e-06
1.26968e-06
1.26988e-06
1.26962e-06
1.26845e-06
1.26979e-06
1.26991e-06
1.25411e-06
1.25398e-06
1.25388e-06
1.2523e-06
1.25221e-06
1.25216e-06
1.25226e-06
1.25377e-06
1.25398e-06
1.25388e-06
1.25183e-06
1.24916e-06
1.24916e-06
1.24916e-06
1.24916e-06
1.25186e-06
1.25249e-06
1.2523e-06
1.24916e-06
1.24916e-06
1.24916e-06
1.24916e-06
1.24916e-06
1.24916e-06
1.25237e-06
1.25404e-06
1.25411e-06
1.25221e-06
1.24916e-06
1.24916e-06
1.24916e-06
1.24916e-06
1.24916e-06
1.24916e-06
1.25231e-06
1.25379e-06
1.25398e-06
1.25216e-06
1.24916e-06
1.24916e-06
1.24916e-06
1.24916e-06
1.24916e-06
1.24916e-06
1.25227e-06
1.25261e-06
1.25226e-06
1.24916e-06
1.24916e-06
1.24916e-06
1.24916e-06
1.24916e-06
1.24916e-06
1.25234e-06
1.25395e-06
1.25377e-06
1.25186e-06
1.24916e-06
1.24916e-06
1.24916e-06
1.24916e-06
1.2519e-06
1.25246e-06
1.25407e-06
1.25398e-06
1.25249e-06
1.25237e-06
1.25231e-06
1.25227e-06
1.25234e-06
1.25246e-06
1.25384e-06
1.25404e-06
1.25379e-06
1.25261e-06
1.25395e-06
1.25407e-06
1.23827e-06
1.23814e-06
1.23804e-06
1.23646e-06
1.23637e-06
1.23633e-06
1.23642e-06
1.23794e-06
1.23814e-06
1.23804e-06
1.23599e-06
1.23333e-06
1.23333e-06
1.23333e-06
1.23333e-06
1.23602e-06
1.23665e-06
1.23646e-06
1.23333e-06
1.23333e-06
1.23333e-06
1.23333e-06
1.23333e-06
1.23333e-06
1.23653e-06
1.2382e-06
1.23827e-06
1.23637e-06
1.23333e-06
1.23333e-06
1.23333e-06
1.23333e-06
1.23333e-06
1.23333e-06
1.23647e-06
1.23795e-06
1.23814e-06
1.23633e-06
1.23333e-06
1.23333e-06
1.23333e-06
1.23333e-06
1.23333e-06
1.23333e-06
1.23643e-06
1.23677e-06
1.23642e-06
1.23333e-06
1.23333e-06
1.23333e-06
1.23333e-06
1.23333e-06
1.23333e-06
1.2365e-06
1.23811e-06
1.23794e-06
1.23602e-06
1.23333e-06
1.23333e-06
1.23333e-06
1.23333e-06
1.23606e-06
1.23663e-06
1.23823e-06
1.23814e-06
1.23665e-06
1.23653e-06
1.23647e-06
1.23643e-06
1.2365e-06
1.23663e-06
1.238e-06
1.2382e-06
1.23795e-06
1.23677e-06
1.23811e-06
1.23823e-06
1.22243e-06
1.2223e-06
1.2222e-06
1.22062e-06
1.22053e-06
1.22049e-06
1.22058e-06
1.2221e-06
1.2223e-06
1.2222e-06
1.22015e-06
1.21749e-06
1.21749e-06
1.21749e-06
1.21749e-06
1.22018e-06
1.22081e-06
1.22062e-06
1.21749e-06
1.21749e-06
1.21749e-06
1.21749e-06
1.21749e-06
1.21749e-06
1.22069e-06
1.22236e-06
1.22243e-06
1.22053e-06
1.21749e-06
1.21749e-06
1.21749e-06
1.21749e-06
1.21749e-06
1.21749e-06
1.22063e-06
1.22211e-06
1.2223e-06
1.22049e-06
1.21749e-06
1.21749e-06
1.21749e-06
1.21749e-06
1.21749e-06
1.21749e-06
1.2206e-06
1.22093e-06
1.22058e-06
1.21749e-06
1.21749e-06
1.21749e-06
1.21749e-06
1.21749e-06
1.21749e-06
1.22066e-06
1.22228e-06
1.2221e-06
1.22018e-06
1.21749e-06
1.21749e-06
1.21749e-06
1.21749e-06
1.22023e-06
1.22079e-06
1.22239e-06
1.2223e-06
1.22081e-06
1.22069e-06
1.22063e-06
1.2206e-06
1.22066e-06
1.22079e-06
1.22216e-06
1.22236e-06
1.22211e-06
1.22093e-06
1.22228e-06
1.22239e-06
1.2066e-06
1.20646e-06
1.20636e-06
1.20478e-06
1.20469e-06
1.20465e-06
1.20475e-06
1.20626e-06
1.20646e-06
1.20636e-06
1.20431e-06
1.20165e-06
1.20165e-06
1.20165e-06
1.20165e-06
1.20435e-06
1.20497e-06
1.20478e-06
1.20165e-06
1.20165e-06
1.20165e-06
1.20165e-06
1.20165e-06
1.20165e-06
1.20485e-06
1.20652e-06
1.2066e-06
1.20469e-06
1.20165e-06
1.20165e-06
1.20165e-06
1.20165e-06
1.20165e-06
1.20165e-06
1.20479e-06
1.20627e-06
1.20646e-06
1.20465e-06
1.20165e-06
1.20165e-06
1.20165e-06
1.20165e-06
1.20165e-06
1.20165e-06
1.20476e-06
1.20509e-06
1.20475e-06
1.20165e-06
1.20165e-06
1.20165e-06
1.20165e-06
1.20165e-06
1.20165e-06
1.20482e-06
1.20644e-06
1.20626e-06
1.20435e-06
1.20165e-06
1.20165e-06
1.20165e-06
1.20165e-06
1.20439e-06
1.20495e-06
1.20655e-06
1.20646e-06
1.20497e-06
1.20485e-06
1.20479e-06
1.20476e-06
1.20482e-06
1.20495e-06
1.20633e-06
1.20652e-06
1.20627e-06
1.20509e-06
1.20644e-06
1.20655e-06
1.19076e-06
1.19063e-06
1.19052e-06
1.18894e-06
1.18885e-06
1.18881e-06
1.18891e-06
1.19042e-06
1.19062e-06
1.19052e-06
1.18848e-06
1.18581e-06
1.18581e-06
1.18581e-06
1.18581e-06
1.18851e-06
1.18913e-06
1.18894e-06
1.18581e-06
1.18581e-06
1.18581e-06
1.18581e-06
1.18581e-06
1.18581e-06
1.18901e-06
1.19068e-06
1.19076e-06
1.18885e-06
1.18581e-06
1.18581e-06
1.18581e-06
1.18581e-06
1.18581e-06
1.18581e-06
1.18895e-06
1.19043e-06
1.19063e-06
1.18881e-06
1.18581e-06
1.18581e-06
1.18581e-06
1.18581e-06
1.18581e-06
1.18581e-06
1.18892e-06
1.18925e-06
1.18891e-06
1.18581e-06
1.18581e-06
1.18581e-06
1.18581e-06
1.18581e-06
1.18581e-06
1.18898e-06
1.1906e-06
1.19042e-06
1.18851e-06
1.18581e-06
1.18581e-06
1.18581e-06
1.18581e-06
1.18855e-06
1.18911e-06
1.19071e-06
1.19062e-06
1.18913e-06
1.18901e-06
1.18895e-06
1.18892e-06
1.18899e-06
1.18911e-06
1.19049e-06
1.19068e-06
1.19043e-06
1.18926e-06
1.1906e-06
1.19071e-06
1.17492e-06
1.17479e-06
1.17469e-06
1.17311e-06
1.17301e-06
1.17297e-06
1.17307e-06
1.17458e-06
1.17478e-06
1.17468e-06
1.17264e-06
1.16997e-06
1.16997e-06
1.16997e-06
1.16997e-06
1.17267e-06
1.17329e-06
1.17311e-06
1.16997e-06
1.16997e-06
1.16997e-06
1.16997e-06
1.16997e-06
1.16997e-06
1.17317e-06
1.17485e-06
1.17492e-06
1.17301e-06
1.16997e-06
1.16997e-06
1.16997e-06
1.16997e-06
1.16997e-06
1.16997e-06
1.17311e-06
1.1746e-06
1.17479e-06
1.17297e-06
1.16997e-06
1.16997e-06
1.16997e-06
1.16997e-06
1.16997e-06
1.16997e-06
1.17308e-06
1.17342e-06
1.17307e-06
1.16997e-06
1.16997e-06
1.16997e-06
1.16997e-06
1.16997e-06
1.16997e-06
1.17315e-06
1.17476e-06
1.17458e-06
1.17267e-06
1.16997e-06
1.16997e-06
1.16997e-06
1.16997e-06
1.17271e-06
1.17327e-06
1.17488e-06
1.17478e-06
1.17329e-06
1.17318e-06
1.17311e-06
1.17308e-06
1.17315e-06
1.17327e-06
1.17465e-06
1.17485e-06
1.1746e-06
1.17342e-06
1.17476e-06
1.17488e-06
1.15908e-06
1.15895e-06
1.15885e-06
1.15727e-06
1.15718e-06
1.15713e-06
1.15723e-06
1.15875e-06
1.15895e-06
1.15885e-06
1.1568e-06
1.15413e-06
1.15413e-06
1.15413e-06
1.15413e-06
1.15683e-06
1.15746e-06
1.15727e-06
1.15413e-06
1.15413e-06
1.15413e-06
1.15413e-06
1.15413e-06
1.15413e-06
1.15734e-06
1.15901e-06
1.15908e-06
1.15718e-06
1.15413e-06
1.15413e-06
1.15413e-06
1.15413e-06
1.15413e-06
1.15413e-06
1.15728e-06
1.15876e-06
1.15895e-06
1.15713e-06
1.15413e-06
1.15413e-06
1.15413e-06
1.15413e-06
1.15413e-06
1.15413e-06
1.15724e-06
1.15758e-06
1.15723e-06
1.15413e-06
1.15413e-06
1.15413e-06
1.15413e-06
1.15413e-06
1.15413e-06
1.15731e-06
1.15892e-06
1.15875e-06
1.15683e-06
1.15413e-06
1.15413e-06
1.15413e-06
1.15413e-06
1.15687e-06
1.15743e-06
1.15904e-06
1.15895e-06
1.15746e-06
1.15734e-06
1.15728e-06
1.15724e-06
1.15731e-06
1.15744e-06
1.15881e-06
1.15901e-06
1.15876e-06
1.15758e-06
1.15892e-06
1.15904e-06
1.14324e-06
1.14311e-06
1.14301e-06
1.14143e-06
1.14134e-06
1.1413e-06
1.14139e-06
1.14291e-06
1.14311e-06
1.14301e-06
1.14096e-06
1.1383e-06
1.1383e-06
1.1383e-06
1.1383e-06
1.14099e-06
1.14162e-06
1.14143e-06
1.1383e-06
1.1383e-06
1.1383e-06
1.1383e-06
1.1383e-06
1.1383e-06
1.1415e-06
1.14317e-06
1.14324e-06
1.14134e-06
1.1383e-06
1.1383e-06
1.1383e-06
1.1383e-06
1.1383e-06
1.1383e-06
1.14144e-06
1.14292e-06
1.14311e-06
1.1413e-06
1.1383e-06
1.1383e-06
1.1383e-06
1.1383e-06
1.1383e-06
1.1383e-06
1.1414e-06
1.14174e-06
1.14139e-06
1.1383e-06
1.1383e-06
1.1383e-06
1.1383e-06
1.1383e-06
1.1383e-06
1.14147e-06
1.14308e-06
1.14291e-06
1.14099e-06
1.1383e-06
1.1383e-06
1.1383e-06
1.1383e-06
1.14104e-06
1.1416e-06
1.1432e-06
1.14311e-06
1.14162e-06
1.1415e-06
1.14144e-06
1.14141e-06
1.14147e-06
1.1416e-06
1.14297e-06
1.14317e-06
1.14292e-06
1.14174e-06
1.14308e-06
1.1432e-06
1.1274e-06
1.12727e-06
1.12717e-06
1.12559e-06
1.1255e-06
1.12546e-06
1.12555e-06
1.12707e-06
1.12727e-06
1.12717e-06
1.12512e-06
1.12246e-06
1.12246e-06
1.12246e-06
1.12246e-06
1.12515e-06
1.12578e-06
1.12559e-06
1.12246e-06
1.12246e-06
1.12246e-06
1.12246e-06
1.12246e-06
1.12246e-06
1.12566e-06
1.12733e-06
1.12741e-06
1.1255e-06
1.12246e-06
1.12246e-06
1.12246e-06
1.12246e-06
1.12246e-06
1.12246e-06
1.1256e-06
1.12708e-06
1.12727e-06
1.12546e-06
1.12246e-06
1.12246e-06
1.12246e-06
1.12246e-06
1.12246e-06
1.12246e-06
1.12557e-06
1.1259e-06
1.12555e-06
1.12246e-06
1.12246e-06
1.12246e-06
1.12246e-06
1.12246e-06
1.12246e-06
1.12563e-06
1.12725e-06
1.12707e-06
1.12515e-06
1.12246e-06
1.12246e-06
1.12246e-06
1.12246e-06
1.1252e-06
1.12576e-06
1.12736e-06
1.12727e-06
1.12578e-06
1.12566e-06
1.1256e-06
1.12557e-06
1.12563e-06
1.12576e-06
1.12713e-06
1.12733e-06
1.12708e-06
1.1259e-06
1.12725e-06
1.12736e-06
1.11157e-06
1.11143e-06
1.11133e-06
1.10975e-06
1.10966e-06
1.10962e-06
1.10972e-06
1.11123e-06
1.11143e-06
1.11133e-06
1.10929e-06
1.10662e-06
1.10662e-06
1.10662e-06
1.10662e-06
1.10932e-06
1.10994e-06
1.10975e-06
1.10662e-06
1.10662e-06
1.10662e-06
1.10662e-06
1.10662e-06
1.10662e-06
1.10982e-06
1.11149e-06
1.11157e-06
1.10966e-06
1.10662e-06
1.10662e-06
1.10662e-06
1.10662e-06
1.10662e-06
1.10662e-06
1.10976e-06
1.11124e-06
1.11143e-06
1.10962e-06
1.10662e-06
1.10662e-06
1.10662e-06
1.10662e-06
1.10662e-06
1.10662e-06
1.10973e-06
1.11006e-06
1.10972e-06
1.10662e-06
1.10662e-06
1.10662e-06
1.10662e-06
1.10662e-06
1.10662e-06
1.10979e-06
1.11141e-06
1.11123e-06
1.10932e-06
1.10662e-06
1.10662e-06
1.10662e-06
1.10662e-06
1.10936e-06
1.10992e-06
1.11152e-06
1.11143e-06
1.10994e-06
1.10982e-06
1.10976e-06
1.10973e-06
1.10979e-06
1.10992e-06
1.1113e-06
1.11149e-06
1.11124e-06
1.11006e-06
1.11141e-06
1.11152e-06
1.09573e-06
1.0956e-06
1.09549e-06
1.09391e-06
1.09382e-06
1.09378e-06
1.09388e-06
1.09539e-06
1.09559e-06
1.09549e-06
1.09345e-06
1.09078e-06
1.09078e-06
1.09078e-06
1.09078e-06
1.09348e-06
1.0941e-06
1.09392e-06
1.09078e-06
1.09078e-06
1.09078e-06
1.09078e-06
1.09078e-06
1.09078e-06
1.09398e-06
1.09565e-06
1.09573e-06
1.09382e-06
1.09078e-06
1.09078e-06
1.09078e-06
1.09078e-06
1.09078e-06
1.09078e-06
1.09392e-06
1.0954e-06
1.0956e-06
1.09378e-06
1.09078e-06
1.09078e-06
1.09078e-06
1.09078e-06
1.09078e-06
1.09078e-06
1.09389e-06
1.09423e-06
1.09388e-06
1.09078e-06
1.09078e-06
1.09078e-06
1.09078e-06
1.09078e-06
1.09078e-06
1.09395e-06
1.09557e-06
1.09539e-06
1.09348e-06
1.09078e-06
1.09078e-06
1.09078e-06
1.09078e-06
1.09352e-06
1.09408e-06
1.09568e-06
1.09559e-06
1.0941e-06
1.09398e-06
1.09392e-06
1.09389e-06
1.09395e-06
1.09408e-06
1.09546e-06
1.09565e-06
1.0954e-06
1.09423e-06
1.09557e-06
1.09568e-06
1.07989e-06
1.07976e-06
1.07966e-06
1.07808e-06
1.07798e-06
1.07794e-06
1.07804e-06
1.07955e-06
1.07975e-06
1.07966e-06
1.07761e-06
1.07494e-06
1.07494e-06
1.07494e-06
1.07494e-06
1.07764e-06
1.07826e-06
1.07808e-06
1.07494e-06
1.07494e-06
1.07494e-06
1.07494e-06
1.07494e-06
1.07494e-06
1.07815e-06
1.07982e-06
1.07989e-06
1.07798e-06
1.07494e-06
1.07494e-06
1.07494e-06
1.07494e-06
1.07494e-06
1.07494e-06
1.07808e-06
1.07957e-06
1.07976e-06
1.07794e-06
1.07494e-06
1.07494e-06
1.07494e-06
1.07494e-06
1.07494e-06
1.07494e-06
1.07805e-06
1.07839e-06
1.07804e-06
1.07494e-06
1.07494e-06
1.07494e-06
1.07494e-06
1.07494e-06
1.07494e-06
1.07812e-06
1.07973e-06
1.07955e-06
1.07764e-06
1.07494e-06
1.07494e-06
1.07494e-06
1.07494e-06
1.07768e-06
1.07824e-06
1.07985e-06
1.07975e-06
1.07826e-06
1.07815e-06
1.07808e-06
1.07805e-06
1.07812e-06
1.07824e-06
1.07962e-06
1.07982e-06
1.07957e-06
1.07839e-06
1.07973e-06
1.07985e-06
1.06405e-06
1.06392e-06
1.06382e-06
1.06224e-06
1.06215e-06
1.06211e-06
1.0622e-06
1.06372e-06
1.06392e-06
1.06382e-06
1.06177e-06
1.0591e-06
1.0591e-06
1.0591e-06
1.0591e-06
1.0618e-06
1.06243e-06
1.06224e-06
1.0591e-06
1.0591e-06
1.0591e-06
1.0591e-06
1.05911e-06
1.0591e-06
1.06231e-06
1.06398e-06
1.06405e-06
1.06215e-06
1.0591e-06
1.0591e-06
1.0591e-06
1.0591e-06
1.05911e-06
1.0591e-06
1.06225e-06
1.06373e-06
1.06392e-06
1.0621e-06
1.0591e-06
1.05911e-06
1.05911e-06
1.05911e-06
1.05911e-06
1.0591e-06
1.06221e-06
1.06255e-06
1.0622e-06
1.05911e-06
1.05911e-06
1.05911e-06
1.05911e-06
1.05911e-06
1.0591e-06
1.06228e-06
1.06389e-06
1.06372e-06
1.0618e-06
1.05911e-06
1.05911e-06
1.05911e-06
1.05911e-06
1.06184e-06
1.06241e-06
1.06401e-06
1.06392e-06
1.06243e-06
1.06231e-06
1.06225e-06
1.06221e-06
1.06228e-06
1.06241e-06
1.06378e-06
1.06398e-06
1.06373e-06
1.06255e-06
1.06389e-06
1.06401e-06
1.04821e-06
1.04808e-06
1.04798e-06
1.0464e-06
1.04631e-06
1.04627e-06
1.04636e-06
1.04788e-06
1.04808e-06
1.04798e-06
1.04593e-06
1.04327e-06
1.04327e-06
1.04327e-06
1.04327e-06
1.04596e-06
1.04659e-06
1.0464e-06
1.04327e-06
1.04327e-06
1.04327e-06
1.04327e-06
1.04327e-06
1.04327e-06
1.04647e-06
1.04814e-06
1.04821e-06
1.04631e-06
1.04327e-06
1.04327e-06
1.04327e-06
1.04327e-06
1.04327e-06
1.04327e-06
1.04641e-06
1.04789e-06
1.04808e-06
1.04627e-06
1.04327e-06
1.04327e-06
1.04327e-06
1.04327e-06
1.04327e-06
1.04327e-06
1.04638e-06
1.04671e-06
1.04636e-06
1.04327e-06
1.04327e-06
1.04327e-06
1.04327e-06
1.04327e-06
1.04327e-06
1.04644e-06
1.04805e-06
1.04788e-06
1.04596e-06
1.04327e-06
1.04327e-06
1.04327e-06
1.04327e-06
1.04601e-06
1.04657e-06
1.04817e-06
1.04808e-06
1.04659e-06
1.04647e-06
1.04641e-06
1.04638e-06
1.04644e-06
1.04657e-06
1.04794e-06
1.04814e-06
1.04789e-06
1.04671e-06
1.04805e-06
1.04817e-06
1.03238e-06
1.03224e-06
1.03214e-06
1.03056e-06
1.03047e-06
1.03043e-06
1.03053e-06
1.03204e-06
1.03224e-06
1.03214e-06
1.03009e-06
1.02743e-06
1.02743e-06
1.02743e-06
1.02743e-06
1.03013e-06
1.03075e-06
1.03056e-06
1.02743e-06
1.02743e-06
1.02743e-06
1.02743e-06
1.02743e-06
1.02743e-06
1.03063e-06
1.0323e-06
1.03238e-06
1.03047e-06
1.02743e-06
1.02743e-06
1.02743e-06
1.02743e-06
1.02743e-06
1.02743e-06
1.03057e-06
1.03205e-06
1.03224e-06
1.03043e-06
1.02743e-06
1.02743e-06
1.02743e-06
1.02743e-06
1.02743e-06
1.02743e-06
1.03054e-06
1.03087e-06
1.03053e-06
1.02743e-06
1.02743e-06
1.02743e-06
1.02743e-06
1.02743e-06
1.02743e-06
1.0306e-06
1.03222e-06
1.03204e-06
1.03013e-06
1.02743e-06
1.02743e-06
1.02743e-06
1.02743e-06
1.03017e-06
1.03073e-06
1.03233e-06
1.03224e-06
1.03075e-06
1.03063e-06
1.03057e-06
1.03054e-06
1.0306e-06
1.03073e-06
1.0321e-06
1.0323e-06
1.03205e-06
1.03087e-06
1.03222e-06
1.03233e-06
1.01654e-06
1.01641e-06
1.0163e-06
1.01472e-06
1.01463e-06
1.01459e-06
1.01469e-06
1.0162e-06
1.0164e-06
1.0163e-06
1.01426e-06
1.01159e-06
1.01159e-06
1.01159e-06
1.01159e-06
1.01429e-06
1.01491e-06
1.01472e-06
1.01159e-06
1.01159e-06
1.01159e-06
1.01159e-06
1.01159e-06
1.01159e-06
1.01479e-06
1.01646e-06
1.01654e-06
1.01463e-06
1.01159e-06
1.01159e-06
1.01159e-06
1.01159e-06
1.01159e-06
1.01159e-06
1.01473e-06
1.01621e-06
1.0164e-06
1.01459e-06
1.01159e-06
1.01159e-06
1.01159e-06
1.01159e-06
1.01159e-06
1.01159e-06
1.0147e-06
1.01503e-06
1.01469e-06
1.01159e-06
1.01159e-06
1.01159e-06
1.01159e-06
1.01159e-06
1.01159e-06
1.01476e-06
1.01638e-06
1.0162e-06
1.01429e-06
1.01159e-06
1.01159e-06
1.01159e-06
1.01159e-06
1.01433e-06
1.01489e-06
1.01649e-06
1.0164e-06
1.01491e-06
1.01479e-06
1.01473e-06
1.0147e-06
1.01476e-06