/*--------------------------------*- C++ -*----------------------------------*\
| =========                 |                                                 |
| \\      /  F ield         | OpenFOAM: The Open Source CFD Toolbox           |
|  \\    /   O peration     | Version:  v2012                                 |
|   \\  /    A nd           | Website:  www.openfoam.com                      |
|    \\/     M anipulation  |                                                 |
\*---------------------------------------------------------------------------*/
FoamFile
{
    version     2.0;
    format      ascii;
    class       volScalarField;
    location    "0.125";
    object      p;
}
// * * * * * * * * * * * * * * * * * * * * * * * * * * * * * * * * * * * * * //

dimensions      [0 2 -2 0 0 0 0];


internalField   nonuniform List<scalar> 
244288
(
2.15687e-06
2.15807e-06
2.15814e-06
2.15772e-06
2.15738e-06
2.1578e-06
2.15817e-06
2.15807e-06
2.15821e-06
2.15826e-06
2.158e-06
2.15782e-06
2.15804e-06
2.15829e-06
2.15819e-06
2.15815e-06
2.15827e-06
2.15805e-06
2.15768e-06
2.15752e-06
2.15772e-06
2.1581e-06
2.15827e-06
2.15814e-06
2.15772e-06
2.158e-06
2.15768e-06
2.15725e-06
2.15709e-06
2.1573e-06
2.15774e-06
2.15801e-06
2.15764e-06
2.15686e-06
2.15738e-06
2.15782e-06
2.15752e-06
2.15709e-06
2.15693e-06
2.15714e-06
2.15758e-06
2.15783e-06
2.15728e-06
2.15779e-06
2.15804e-06
2.15772e-06
2.1573e-06
2.15714e-06
2.15735e-06
2.15778e-06
2.15806e-06
2.15773e-06
2.15817e-06
2.15829e-06
2.1581e-06
2.15774e-06
2.15758e-06
2.15778e-06
2.15814e-06
2.15829e-06
2.15818e-06
2.15819e-06
2.15827e-06
2.15801e-06
2.15783e-06
2.15805e-06
2.15829e-06
2.15816e-06
2.15815e-06
2.15765e-06
2.15728e-06
2.15773e-06
2.15818e-06
2.12292e-06
2.12161e-06
2.12252e-06
2.12065e-06
2.12042e-06
2.12029e-06
2.12044e-06
2.12297e-06
2.12296e-06
2.12251e-06
2.11989e-06
2.11702e-06
2.11692e-06
2.11693e-06
2.11702e-06
2.12139e-06
2.12094e-06
2.12065e-06
2.11702e-06
2.11685e-06
2.11686e-06
2.11686e-06
2.11686e-06
2.11702e-06
2.12174e-06
2.12344e-06
2.12292e-06
2.12042e-06
2.11692e-06
2.11686e-06
2.11691e-06
2.11691e-06
2.11687e-06
2.11693e-06
2.12143e-06
2.12222e-06
2.12163e-06
2.1203e-06
2.11692e-06
2.11686e-06
2.11691e-06
2.11692e-06
2.11687e-06
2.11693e-06
2.12135e-06
2.12005e-06
2.12044e-06
2.11702e-06
2.11686e-06
2.11687e-06
2.11687e-06
2.11686e-06
2.11703e-06
2.12155e-06
2.12139e-06
2.12296e-06
2.12138e-06
2.11702e-06
2.11693e-06
2.11693e-06
2.11703e-06
2.12211e-06
2.12155e-06
2.12355e-06
2.12296e-06
2.12094e-06
2.12174e-06
2.12144e-06
2.12135e-06
2.12155e-06
2.12156e-06
2.12403e-06
2.12344e-06
2.12223e-06
2.12006e-06
2.12138e-06
2.12354e-06
2.10238e-06
2.10215e-06
2.10214e-06
2.0995e-06
2.09949e-06
2.09942e-06
2.09955e-06
2.10274e-06
2.10272e-06
2.10213e-06
2.09824e-06
2.0952e-06
2.09491e-06
2.0949e-06
2.09517e-06
2.10052e-06
2.1005e-06
2.0995e-06
2.0952e-06
2.09424e-06
2.09424e-06
2.09424e-06
2.09423e-06
2.0952e-06
2.10182e-06
2.1035e-06
2.10232e-06
2.0995e-06
2.09491e-06
2.09424e-06
2.09429e-06
2.09429e-06
2.09424e-06
2.09489e-06
2.10194e-06
2.10276e-06
2.10211e-06
2.09942e-06
2.0949e-06
2.09424e-06
2.09429e-06
2.09429e-06
2.09424e-06
2.09491e-06
2.10182e-06
2.09992e-06
2.09955e-06
2.09517e-06
2.09423e-06
2.09424e-06
2.09424e-06
2.09423e-06
2.09518e-06
2.102e-06
2.10345e-06
2.10274e-06
2.10052e-06
2.09521e-06
2.0949e-06
2.09489e-06
2.0952e-06
2.10231e-06
2.10121e-06
2.10329e-06
2.10272e-06
2.10049e-06
2.10182e-06
2.10193e-06
2.10182e-06
2.10201e-06
2.10123e-06
2.1038e-06
2.1035e-06
2.10272e-06
2.09996e-06
2.10346e-06
2.1033e-06
2.08051e-06
2.08034e-06
2.08023e-06
2.07737e-06
2.07739e-06
2.07717e-06
2.0776e-06
2.08081e-06
2.08085e-06
2.08024e-06
2.07574e-06
2.07303e-06
2.0729e-06
2.07289e-06
2.07304e-06
2.07825e-06
2.07873e-06
2.07737e-06
2.07302e-06
2.07267e-06
2.07264e-06
2.07264e-06
2.07267e-06
2.07303e-06
2.07997e-06
2.08165e-06
2.08049e-06
2.0774e-06
2.0729e-06
2.07264e-06
2.07263e-06
2.07263e-06
2.07264e-06
2.0729e-06
2.08037e-06
2.08096e-06
2.08031e-06
2.07717e-06
2.07289e-06
2.07264e-06
2.07263e-06
2.07263e-06
2.07264e-06
2.0729e-06
2.0803e-06
2.0783e-06
2.07759e-06
2.07304e-06
2.07267e-06
2.07264e-06
2.07264e-06
2.07267e-06
2.07305e-06
2.08031e-06
2.08163e-06
2.08081e-06
2.07825e-06
2.07303e-06
2.0729e-06
2.0729e-06
2.07303e-06
2.08071e-06
2.07942e-06
2.08151e-06
2.08085e-06
2.07873e-06
2.07997e-06
2.08037e-06
2.0803e-06
2.08031e-06
2.07942e-06
2.08181e-06
2.08165e-06
2.08094e-06
2.07832e-06
2.08163e-06
2.0815e-06
2.05829e-06
2.05814e-06
2.05785e-06
2.05494e-06
2.05494e-06
2.05461e-06
2.05518e-06
2.05842e-06
2.05845e-06
2.05784e-06
2.05311e-06
2.05056e-06
2.05052e-06
2.05052e-06
2.05056e-06
2.05563e-06
2.05639e-06
2.05494e-06
2.05055e-06
2.05047e-06
2.05046e-06
2.05046e-06
2.05047e-06
2.05056e-06
2.05767e-06
2.05938e-06
2.05831e-06
2.05493e-06
2.05052e-06
2.05046e-06
2.05046e-06
2.05046e-06
2.05046e-06
2.05052e-06
2.05826e-06
2.05884e-06
2.05816e-06
2.05461e-06
2.05052e-06
2.05046e-06
2.05046e-06
2.05046e-06
2.05046e-06
2.05052e-06
2.05824e-06
2.05623e-06
2.05518e-06
2.05057e-06
2.05047e-06
2.05046e-06
2.05046e-06
2.05047e-06
2.05057e-06
2.0581e-06
2.05948e-06
2.05842e-06
2.05563e-06
2.05056e-06
2.05052e-06
2.05052e-06
2.05056e-06
2.05858e-06
2.05715e-06
2.0592e-06
2.05845e-06
2.05639e-06
2.05767e-06
2.05827e-06
2.05824e-06
2.0581e-06
2.05715e-06
2.05943e-06
2.05937e-06
2.05884e-06
2.05623e-06
2.05949e-06
2.0592e-06
2.03597e-06
2.03583e-06
2.03547e-06
2.03256e-06
2.03254e-06
2.03217e-06
2.03278e-06
2.03604e-06
2.03607e-06
2.03546e-06
2.03068e-06
2.02815e-06
2.02814e-06
2.02814e-06
2.02815e-06
2.03316e-06
2.03401e-06
2.03255e-06
2.02815e-06
2.02813e-06
2.02813e-06
2.02813e-06
2.02813e-06
2.02815e-06
2.0353e-06
2.03702e-06
2.036e-06
2.03251e-06
2.02814e-06
2.02813e-06
2.02813e-06
2.02813e-06
2.02813e-06
2.02814e-06
2.03595e-06
2.03654e-06
2.03586e-06
2.0322e-06
2.02814e-06
2.02813e-06
2.02813e-06
2.02813e-06
2.02813e-06
2.02814e-06
2.03595e-06
2.03394e-06
2.03279e-06
2.02815e-06
2.02813e-06
2.02813e-06
2.02813e-06
2.02813e-06
2.02815e-06
2.03575e-06
2.03717e-06
2.03604e-06
2.03316e-06
2.02815e-06
2.02814e-06
2.02814e-06
2.02815e-06
2.03629e-06
2.03481e-06
2.03684e-06
2.03607e-06
2.03401e-06
2.0353e-06
2.03595e-06
2.03595e-06
2.03575e-06
2.0348e-06
2.03705e-06
2.03701e-06
2.03654e-06
2.03394e-06
2.03717e-06
2.03683e-06
2.0136e-06
2.01346e-06
2.0131e-06
2.01017e-06
2.01016e-06
2.00977e-06
2.0104e-06
2.01366e-06
2.01368e-06
2.01308e-06
2.00829e-06
2.00577e-06
2.00576e-06
2.00576e-06
2.00577e-06
2.01076e-06
2.01163e-06
2.01017e-06
2.00577e-06
2.00576e-06
2.00576e-06
2.00576e-06
2.00576e-06
2.00576e-06
2.01292e-06
2.01464e-06
2.01367e-06
2.01012e-06
2.00576e-06
2.00576e-06
2.00576e-06
2.00576e-06
2.00576e-06
2.00576e-06
2.01359e-06
2.01417e-06
2.01349e-06
2.00981e-06
2.00577e-06
2.00576e-06
2.00576e-06
2.00576e-06
2.00576e-06
2.00576e-06
2.01359e-06
2.01158e-06
2.0104e-06
2.00577e-06
2.00576e-06
2.00576e-06
2.00576e-06
2.00576e-06
2.00577e-06
2.01338e-06
2.0148e-06
2.01366e-06
2.01076e-06
2.00576e-06
2.00576e-06
2.00576e-06
2.00577e-06
2.01393e-06
2.01244e-06
2.01445e-06
2.01368e-06
2.01163e-06
2.01292e-06
2.01358e-06
2.01359e-06
2.01338e-06
2.01243e-06
2.01467e-06
2.01463e-06
2.01417e-06
2.01158e-06
2.01481e-06
2.01445e-06
1.99122e-06
1.99109e-06
1.99072e-06
1.98779e-06
1.98778e-06
1.98739e-06
1.98802e-06
1.99128e-06
1.9913e-06
1.9907e-06
1.9859e-06
1.98338e-06
1.98338e-06
1.98338e-06
1.98338e-06
1.98837e-06
1.98925e-06
1.98778e-06
1.98338e-06
1.98338e-06
1.98338e-06
1.98338e-06
1.98338e-06
1.98339e-06
1.99055e-06
1.99226e-06
1.99125e-06
1.98775e-06
1.98338e-06
1.98338e-06
1.98338e-06
1.98338e-06
1.98338e-06
1.98338e-06
1.99121e-06
1.99179e-06
1.99111e-06
1.98736e-06
1.98338e-06
1.98338e-06
1.98338e-06
1.98338e-06
1.98338e-06
1.98338e-06
1.99121e-06
1.9892e-06
1.98803e-06
1.98339e-06
1.98338e-06
1.98338e-06
1.98338e-06
1.98338e-06
1.98339e-06
1.99101e-06
1.99243e-06
1.99128e-06
1.98837e-06
1.98339e-06
1.98338e-06
1.98338e-06
1.98338e-06
1.99156e-06
1.99007e-06
1.99208e-06
1.99131e-06
1.98925e-06
1.99055e-06
1.99121e-06
1.99122e-06
1.991e-06
1.99006e-06
1.99229e-06
1.99226e-06
1.9918e-06
1.98921e-06
1.99243e-06
1.99207e-06
1.96884e-06
1.96871e-06
1.96833e-06
1.96541e-06
1.9654e-06
1.96501e-06
1.96564e-06
1.9689e-06
1.96892e-06
1.96832e-06
1.96352e-06
1.961e-06
1.961e-06
1.961e-06
1.961e-06
1.96599e-06
1.96687e-06
1.9654e-06
1.961e-06
1.961e-06
1.961e-06
1.961e-06
1.961e-06
1.961e-06
1.96817e-06
1.96989e-06
1.96881e-06
1.96541e-06
1.96101e-06
1.961e-06
1.961e-06
1.961e-06
1.961e-06
1.96101e-06
1.96883e-06
1.96942e-06
1.96866e-06
1.96504e-06
1.961e-06
1.961e-06
1.961e-06
1.961e-06
1.961e-06
1.96101e-06
1.96884e-06
1.96683e-06
1.96564e-06
1.961e-06
1.961e-06
1.961e-06
1.961e-06
1.961e-06
1.96101e-06
1.96863e-06
1.97005e-06
1.96889e-06
1.96599e-06
1.96101e-06
1.96101e-06
1.96101e-06
1.96101e-06
1.96918e-06
1.96769e-06
1.9697e-06
1.96893e-06
1.96687e-06
1.96817e-06
1.96883e-06
1.96884e-06
1.96863e-06
1.96768e-06
1.96991e-06
1.96988e-06
1.96942e-06
1.96683e-06
1.97006e-06
1.96969e-06
1.94647e-06
1.94633e-06
1.94596e-06
1.94303e-06
1.94302e-06
1.94263e-06
1.94326e-06
1.94652e-06
1.94655e-06
1.94594e-06
1.94114e-06
1.93862e-06
1.93863e-06
1.93863e-06
1.93863e-06
1.94361e-06
1.94449e-06
1.94303e-06
1.93863e-06
1.93863e-06
1.93863e-06
1.93863e-06
1.93863e-06
1.93863e-06
1.94579e-06
1.94751e-06
1.94641e-06
1.94301e-06
1.93863e-06
1.93863e-06
1.93863e-06
1.93863e-06
1.93863e-06
1.93863e-06
1.94646e-06
1.94704e-06
1.94627e-06
1.94266e-06
1.93862e-06
1.93863e-06
1.93863e-06
1.93863e-06
1.93863e-06
1.93863e-06
1.94646e-06
1.94445e-06
1.94325e-06
1.93863e-06
1.93863e-06
1.93863e-06
1.93863e-06
1.93863e-06
1.93863e-06
1.94625e-06
1.94767e-06
1.94652e-06
1.94362e-06
1.93863e-06
1.93863e-06
1.93863e-06
1.93863e-06
1.94681e-06
1.94531e-06
1.94732e-06
1.94655e-06
1.94449e-06
1.94579e-06
1.94645e-06
1.94646e-06
1.94625e-06
1.9453e-06
1.94753e-06
1.9475e-06
1.94704e-06
1.94445e-06
1.94767e-06
1.94731e-06
1.92409e-06
1.92396e-06
1.92358e-06
1.92065e-06
1.92064e-06
1.92025e-06
1.92088e-06
1.92414e-06
1.92417e-06
1.92356e-06
1.91876e-06
1.91625e-06
1.91625e-06
1.91625e-06
1.91625e-06
1.92123e-06
1.92212e-06
1.92065e-06
1.91625e-06
1.91625e-06
1.91625e-06
1.91625e-06
1.91625e-06
1.91625e-06
1.92341e-06
1.92513e-06
1.92405e-06
1.92064e-06
1.91625e-06
1.91625e-06
1.91625e-06
1.91625e-06
1.91625e-06
1.91625e-06
1.92408e-06
1.92466e-06
1.92392e-06
1.92028e-06
1.91625e-06
1.91625e-06
1.91625e-06
1.91625e-06
1.91625e-06
1.91625e-06
1.92408e-06
1.92207e-06
1.92088e-06
1.91625e-06
1.91625e-06
1.91625e-06
1.91625e-06
1.91625e-06
1.91625e-06
1.92387e-06
1.92529e-06
1.92414e-06
1.92124e-06
1.91625e-06
1.91625e-06
1.91625e-06
1.91625e-06
1.92443e-06
1.92293e-06
1.92494e-06
1.92417e-06
1.92212e-06
1.92341e-06
1.92408e-06
1.92408e-06
1.92387e-06
1.92292e-06
1.92515e-06
1.92512e-06
1.92467e-06
1.92207e-06
1.92529e-06
1.92493e-06
1.90171e-06
1.90157e-06
1.9012e-06
1.89827e-06
1.89826e-06
1.89787e-06
1.8985e-06
1.90176e-06
1.90179e-06
1.90119e-06
1.89638e-06
1.89387e-06
1.89387e-06
1.89387e-06
1.89387e-06
1.89885e-06
1.89974e-06
1.89827e-06
1.89387e-06
1.89387e-06
1.89387e-06
1.89387e-06
1.89387e-06
1.89387e-06
1.90103e-06
1.90275e-06
1.90171e-06
1.89826e-06
1.89387e-06
1.89387e-06
1.89387e-06
1.89387e-06
1.89387e-06
1.89387e-06
1.9017e-06
1.90228e-06
1.90157e-06
1.89787e-06
1.89387e-06
1.89387e-06
1.89387e-06
1.89387e-06
1.89387e-06
1.89387e-06
1.9017e-06
1.89969e-06
1.8985e-06
1.89387e-06
1.89387e-06
1.89387e-06
1.89387e-06
1.89387e-06
1.89387e-06
1.90149e-06
1.90291e-06
1.90176e-06
1.89886e-06
1.89387e-06
1.89387e-06
1.89387e-06
1.89387e-06
1.90204e-06
1.90055e-06
1.90256e-06
1.90179e-06
1.89973e-06
1.90103e-06
1.9017e-06
1.9017e-06
1.90149e-06
1.90054e-06
1.90277e-06
1.90274e-06
1.90229e-06
1.89969e-06
1.90292e-06
1.90255e-06
1.87933e-06
1.8792e-06
1.87882e-06
1.8759e-06
1.87588e-06
1.87549e-06
1.87612e-06
1.87938e-06
1.87941e-06
1.87881e-06
1.87401e-06
1.87149e-06
1.87149e-06
1.87149e-06
1.87149e-06
1.87647e-06
1.87736e-06
1.87589e-06
1.87149e-06
1.87149e-06
1.87149e-06
1.87149e-06
1.87149e-06
1.87149e-06
1.87865e-06
1.88037e-06
1.87935e-06
1.87586e-06
1.87149e-06
1.87149e-06
1.87149e-06
1.87149e-06
1.87149e-06
1.87149e-06
1.87932e-06
1.8799e-06
1.87919e-06
1.87551e-06
1.87149e-06
1.87149e-06
1.87149e-06
1.87149e-06
1.87149e-06
1.87149e-06
1.87932e-06
1.87731e-06
1.87612e-06
1.87149e-06
1.87149e-06
1.87149e-06
1.87149e-06
1.87149e-06
1.87149e-06
1.87911e-06
1.88053e-06
1.87937e-06
1.87647e-06
1.87149e-06
1.87149e-06
1.87149e-06
1.87149e-06
1.87967e-06
1.87818e-06
1.88018e-06
1.87941e-06
1.87735e-06
1.87865e-06
1.87932e-06
1.87932e-06
1.8791e-06
1.87816e-06
1.88039e-06
1.88036e-06
1.8799e-06
1.87731e-06
1.88053e-06
1.88017e-06
1.85695e-06
1.85681e-06
1.85644e-06
1.85352e-06
1.8535e-06
1.85311e-06
1.85374e-06
1.857e-06
1.85703e-06
1.85643e-06
1.85163e-06
1.84911e-06
1.84911e-06
1.84911e-06
1.84911e-06
1.85409e-06
1.85498e-06
1.85351e-06
1.8491e-06
1.84911e-06
1.84911e-06
1.84911e-06
1.84911e-06
1.84911e-06
1.85627e-06
1.85799e-06
1.85703e-06
1.85346e-06
1.8491e-06
1.84911e-06
1.84911e-06
1.84911e-06
1.84911e-06
1.84911e-06
1.85694e-06
1.85752e-06
1.85682e-06
1.85316e-06
1.84911e-06
1.84911e-06
1.84911e-06
1.84911e-06
1.84911e-06
1.84911e-06
1.85694e-06
1.85493e-06
1.85374e-06
1.84911e-06
1.84911e-06
1.84911e-06
1.84911e-06
1.84911e-06
1.84911e-06
1.85673e-06
1.85815e-06
1.857e-06
1.85409e-06
1.84911e-06
1.84911e-06
1.84911e-06
1.84911e-06
1.85729e-06
1.85579e-06
1.8578e-06
1.85703e-06
1.85497e-06
1.85627e-06
1.85694e-06
1.85694e-06
1.85673e-06
1.85578e-06
1.85801e-06
1.85798e-06
1.85752e-06
1.85493e-06
1.85816e-06
1.85779e-06
1.83457e-06
1.83443e-06
1.83406e-06
1.83114e-06
1.83112e-06
1.83073e-06
1.83136e-06
1.83462e-06
1.83465e-06
1.83405e-06
1.82924e-06
1.82673e-06
1.82673e-06
1.82673e-06
1.82673e-06
1.83171e-06
1.8326e-06
1.83113e-06
1.82673e-06
1.82673e-06
1.82673e-06
1.82673e-06
1.82673e-06
1.82673e-06
1.83389e-06
1.83561e-06
1.83462e-06
1.83109e-06
1.82673e-06
1.82673e-06
1.82673e-06
1.82673e-06
1.82673e-06
1.82673e-06
1.83456e-06
1.83514e-06
1.83449e-06
1.83076e-06
1.82673e-06
1.82673e-06
1.82673e-06
1.82673e-06
1.82673e-06
1.82673e-06
1.83456e-06
1.83255e-06
1.83135e-06
1.82673e-06
1.82673e-06
1.82673e-06
1.82673e-06
1.82673e-06
1.82673e-06
1.83435e-06
1.83577e-06
1.83462e-06
1.8317e-06
1.82673e-06
1.82673e-06
1.82673e-06
1.82673e-06
1.83491e-06
1.83341e-06
1.83542e-06
1.83464e-06
1.83259e-06
1.83389e-06
1.83456e-06
1.83456e-06
1.83435e-06
1.8334e-06
1.83563e-06
1.8356e-06
1.83514e-06
1.83255e-06
1.83578e-06
1.83541e-06
1.81219e-06
1.81206e-06
1.81168e-06
1.80876e-06
1.80874e-06
1.80835e-06
1.80898e-06
1.81224e-06
1.81227e-06
1.81166e-06
1.80687e-06
1.80435e-06
1.80435e-06
1.80435e-06
1.80435e-06
1.80933e-06
1.81022e-06
1.80875e-06
1.80435e-06
1.80435e-06
1.80435e-06
1.80435e-06
1.80435e-06
1.80435e-06
1.81151e-06
1.81323e-06
1.81219e-06
1.80874e-06
1.80435e-06
1.80435e-06
1.80435e-06
1.80435e-06
1.80435e-06
1.80435e-06
1.81218e-06
1.81276e-06
1.81204e-06
1.80836e-06
1.80435e-06
1.80435e-06
1.80435e-06
1.80435e-06
1.80435e-06
1.80435e-06
1.81218e-06
1.81017e-06
1.80898e-06
1.80435e-06
1.80435e-06
1.80435e-06
1.80435e-06
1.80435e-06
1.80435e-06
1.81197e-06
1.81339e-06
1.81224e-06
1.80933e-06
1.80435e-06
1.80435e-06
1.80435e-06
1.80435e-06
1.81252e-06
1.81103e-06
1.81304e-06
1.81227e-06
1.81022e-06
1.81151e-06
1.81218e-06
1.81218e-06
1.81197e-06
1.81102e-06
1.81325e-06
1.81322e-06
1.81276e-06
1.81017e-06
1.8134e-06
1.81303e-06
1.78981e-06
1.78967e-06
1.7893e-06
1.78637e-06
1.78636e-06
1.78597e-06
1.7866e-06
1.78986e-06
1.78989e-06
1.78928e-06
1.78449e-06
1.78197e-06
1.78197e-06
1.78197e-06
1.78197e-06
1.78695e-06
1.78784e-06
1.78637e-06
1.78197e-06
1.78197e-06
1.78197e-06
1.78197e-06
1.78197e-06
1.78197e-06
1.78913e-06
1.79085e-06
1.78982e-06
1.78635e-06
1.78197e-06
1.78197e-06
1.78197e-06
1.78197e-06
1.78197e-06
1.78197e-06
1.7898e-06
1.79038e-06
1.78968e-06
1.78597e-06
1.78197e-06
1.78197e-06
1.78197e-06
1.78197e-06
1.78197e-06
1.78197e-06
1.7898e-06
1.78779e-06
1.7866e-06
1.78197e-06
1.78197e-06
1.78197e-06
1.78197e-06
1.78197e-06
1.78197e-06
1.78959e-06
1.79101e-06
1.78986e-06
1.78695e-06
1.78197e-06
1.78197e-06
1.78197e-06
1.78197e-06
1.79015e-06
1.78865e-06
1.79066e-06
1.78989e-06
1.78783e-06
1.78913e-06
1.7898e-06
1.7898e-06
1.78959e-06
1.78864e-06
1.79087e-06
1.79084e-06
1.79039e-06
1.78778e-06
1.79102e-06
1.79066e-06
1.76743e-06
1.76729e-06
1.76692e-06
1.764e-06
1.76399e-06
1.76359e-06
1.76422e-06
1.76748e-06
1.76751e-06
1.7669e-06
1.76211e-06
1.75959e-06
1.75959e-06
1.75959e-06
1.75959e-06
1.76457e-06
1.76546e-06
1.76399e-06
1.75959e-06
1.75959e-06
1.75959e-06
1.75959e-06
1.75959e-06
1.75959e-06
1.76675e-06
1.76847e-06
1.76743e-06
1.76398e-06
1.75959e-06
1.75959e-06
1.75959e-06
1.75959e-06
1.75959e-06
1.75959e-06
1.76742e-06
1.768e-06
1.7673e-06
1.76359e-06
1.75959e-06
1.75959e-06
1.75959e-06
1.75959e-06
1.75959e-06
1.75959e-06
1.76742e-06
1.76541e-06
1.76422e-06
1.75959e-06
1.75959e-06
1.75959e-06
1.75959e-06
1.75959e-06
1.75959e-06
1.76721e-06
1.76863e-06
1.76748e-06
1.76457e-06
1.75959e-06
1.75959e-06
1.75959e-06
1.75959e-06
1.76777e-06
1.76627e-06
1.76828e-06
1.76751e-06
1.76546e-06
1.76675e-06
1.76742e-06
1.76741e-06
1.7672e-06
1.76626e-06
1.76849e-06
1.76847e-06
1.76805e-06
1.76537e-06
1.76862e-06
1.76827e-06
1.74505e-06
1.74492e-06
1.74454e-06
1.74162e-06
1.7416e-06
1.74121e-06
1.74184e-06
1.74511e-06
1.74513e-06
1.74452e-06
1.73973e-06
1.73721e-06
1.73721e-06
1.73721e-06
1.73721e-06
1.74219e-06
1.74308e-06
1.74161e-06
1.73721e-06
1.73721e-06
1.73721e-06
1.73721e-06
1.73721e-06
1.73721e-06
1.74437e-06
1.74609e-06
1.74504e-06
1.74161e-06
1.73721e-06
1.73721e-06
1.73721e-06
1.73721e-06
1.73721e-06
1.73721e-06
1.74504e-06
1.74562e-06
1.7449e-06
1.74122e-06
1.73721e-06
1.73721e-06
1.73721e-06
1.73721e-06
1.73721e-06
1.73721e-06
1.74504e-06
1.74303e-06
1.74185e-06
1.73721e-06
1.73721e-06
1.73721e-06
1.73721e-06
1.73721e-06
1.73721e-06
1.74483e-06
1.74625e-06
1.74511e-06
1.7422e-06
1.73721e-06
1.73721e-06
1.73721e-06
1.73721e-06
1.74539e-06
1.74389e-06
1.7459e-06
1.74513e-06
1.74308e-06
1.74438e-06
1.74505e-06
1.74505e-06
1.74482e-06
1.74388e-06
1.74611e-06
1.74609e-06
1.74567e-06
1.74301e-06
1.74624e-06
1.7459e-06
1.72267e-06
1.72254e-06
1.72216e-06
1.71924e-06
1.71923e-06
1.71883e-06
1.71946e-06
1.72273e-06
1.72275e-06
1.72214e-06
1.71735e-06
1.71483e-06
1.71483e-06
1.71483e-06
1.71483e-06
1.71981e-06
1.7207e-06
1.71923e-06
1.71483e-06
1.71483e-06
1.71483e-06
1.71483e-06
1.71483e-06
1.71483e-06
1.722e-06
1.72371e-06
1.72267e-06
1.71923e-06
1.71483e-06
1.71483e-06
1.71483e-06
1.71483e-06
1.71483e-06
1.71483e-06
1.72266e-06
1.72324e-06
1.72253e-06
1.71883e-06
1.71483e-06
1.71483e-06
1.71483e-06
1.71483e-06
1.71483e-06
1.71483e-06
1.72266e-06
1.72065e-06
1.71946e-06
1.71483e-06
1.71483e-06
1.71483e-06
1.71483e-06
1.71483e-06
1.71483e-06
1.72245e-06
1.72387e-06
1.72272e-06
1.71981e-06
1.71483e-06
1.71483e-06
1.71483e-06
1.71483e-06
1.72301e-06
1.72152e-06
1.72352e-06
1.72275e-06
1.72069e-06
1.72199e-06
1.72265e-06
1.72268e-06
1.72246e-06
1.7215e-06
1.72373e-06
1.7237e-06
1.72321e-06
1.72068e-06
1.72389e-06
1.72351e-06
1.70029e-06
1.70015e-06
1.69978e-06
1.69686e-06
1.69685e-06
1.69646e-06
1.69708e-06
1.70035e-06
1.70037e-06
1.69976e-06
1.69497e-06
1.69245e-06
1.69245e-06
1.69245e-06
1.69245e-06
1.69743e-06
1.69832e-06
1.69685e-06
1.69245e-06
1.69245e-06
1.69245e-06
1.69245e-06
1.69245e-06
1.69245e-06
1.69961e-06
1.70133e-06
1.7003e-06
1.69684e-06
1.69245e-06
1.69245e-06
1.69245e-06
1.69245e-06
1.69245e-06
1.69245e-06
1.70028e-06
1.70086e-06
1.70015e-06
1.69645e-06
1.69245e-06
1.69245e-06
1.69245e-06
1.69245e-06
1.69245e-06
1.69245e-06
1.70028e-06
1.69828e-06
1.69708e-06
1.69245e-06
1.69245e-06
1.69245e-06
1.69245e-06
1.69245e-06
1.69245e-06
1.70007e-06
1.70149e-06
1.70034e-06
1.69743e-06
1.69245e-06
1.69245e-06
1.69245e-06
1.69245e-06
1.70063e-06
1.69914e-06
1.70114e-06
1.70037e-06
1.69831e-06
1.69961e-06
1.70026e-06
1.70031e-06
1.70008e-06
1.69913e-06
1.70135e-06
1.70133e-06
1.70081e-06
1.69832e-06
1.70151e-06
1.70113e-06
1.67791e-06
1.67777e-06
1.6774e-06
1.67448e-06
1.67447e-06
1.67407e-06
1.6747e-06
1.67797e-06
1.67799e-06
1.67738e-06
1.67259e-06
1.67007e-06
1.67007e-06
1.67007e-06
1.67007e-06
1.67505e-06
1.67594e-06
1.67447e-06
1.67007e-06
1.67007e-06
1.67007e-06
1.67007e-06
1.67007e-06
1.67007e-06
1.67723e-06
1.67895e-06
1.67791e-06
1.67446e-06
1.67007e-06
1.67007e-06
1.67007e-06
1.67007e-06
1.67007e-06
1.67007e-06
1.6779e-06
1.67848e-06
1.67778e-06
1.67408e-06
1.67007e-06
1.67007e-06
1.67007e-06
1.67007e-06
1.67007e-06
1.67007e-06
1.6779e-06
1.67589e-06
1.67471e-06
1.67007e-06
1.67007e-06
1.67007e-06
1.67007e-06
1.67007e-06
1.67007e-06
1.67769e-06
1.67912e-06
1.67796e-06
1.67506e-06
1.67007e-06
1.67007e-06
1.67007e-06
1.67007e-06
1.67825e-06
1.67675e-06
1.67876e-06
1.67799e-06
1.67594e-06
1.67724e-06
1.6779e-06
1.67789e-06
1.67767e-06
1.67674e-06
1.67897e-06
1.67895e-06
1.67852e-06
1.67586e-06
1.6791e-06
1.67874e-06
1.65553e-06
1.6554e-06
1.65502e-06
1.6521e-06
1.65209e-06
1.65169e-06
1.65232e-06
1.65559e-06
1.65561e-06
1.65501e-06
1.65021e-06
1.64769e-06
1.64769e-06
1.64769e-06
1.64769e-06
1.65267e-06
1.65356e-06
1.65209e-06
1.64769e-06
1.64769e-06
1.64769e-06
1.64769e-06
1.64769e-06
1.64769e-06
1.65486e-06
1.65657e-06
1.65554e-06
1.65208e-06
1.64769e-06
1.64769e-06
1.64769e-06
1.64769e-06
1.64769e-06
1.64769e-06
1.65552e-06
1.65611e-06
1.6554e-06
1.6517e-06
1.64769e-06
1.64769e-06
1.64769e-06
1.64769e-06
1.64769e-06
1.64769e-06
1.65552e-06
1.65352e-06
1.65232e-06
1.64769e-06
1.64769e-06
1.64769e-06
1.64769e-06
1.64769e-06
1.64769e-06
1.65531e-06
1.65674e-06
1.65559e-06
1.65268e-06
1.64769e-06
1.64769e-06
1.64769e-06
1.64769e-06
1.65587e-06
1.65438e-06
1.65638e-06
1.65561e-06
1.65356e-06
1.65486e-06
1.65553e-06
1.65553e-06
1.6553e-06
1.65436e-06
1.65659e-06
1.65657e-06
1.65615e-06
1.65349e-06
1.65672e-06
1.65637e-06
1.63315e-06
1.63301e-06
1.63264e-06
1.62972e-06
1.62971e-06
1.62932e-06
1.62994e-06
1.6332e-06
1.63323e-06
1.63263e-06
1.62783e-06
1.62531e-06
1.62531e-06
1.62531e-06
1.62531e-06
1.6303e-06
1.63118e-06
1.62971e-06
1.62531e-06
1.62531e-06
1.62531e-06
1.62531e-06
1.62531e-06
1.62531e-06
1.63248e-06
1.63419e-06
1.63315e-06
1.62971e-06
1.62531e-06
1.62531e-06
1.62531e-06
1.62531e-06
1.62531e-06
1.62531e-06
1.63314e-06
1.63373e-06
1.63301e-06
1.62931e-06
1.62531e-06
1.62531e-06
1.62531e-06
1.62531e-06
1.62531e-06
1.62531e-06
1.63314e-06
1.63114e-06
1.62995e-06
1.62531e-06
1.62531e-06
1.62531e-06
1.62531e-06
1.62531e-06
1.62531e-06
1.63293e-06
1.63436e-06
1.63321e-06
1.6303e-06
1.62531e-06
1.62531e-06
1.62531e-06
1.62531e-06
1.63349e-06
1.632e-06
1.634e-06
1.63323e-06
1.63117e-06
1.63247e-06
1.63313e-06
1.63316e-06
1.63294e-06
1.63198e-06
1.63421e-06
1.63419e-06
1.63371e-06
1.63116e-06
1.63437e-06
1.63399e-06
1.61077e-06
1.61064e-06
1.61026e-06
1.60734e-06
1.60732e-06
1.60694e-06
1.60756e-06
1.61082e-06
1.61085e-06
1.61025e-06
1.60545e-06
1.60293e-06
1.60293e-06
1.60293e-06
1.60293e-06
1.60792e-06
1.6088e-06
1.60733e-06
1.60293e-06
1.60293e-06
1.60293e-06
1.60293e-06
1.60293e-06
1.60293e-06
1.6101e-06
1.61181e-06
1.61078e-06
1.60732e-06
1.60293e-06
1.60293e-06
1.60293e-06
1.60293e-06
1.60293e-06
1.60293e-06
1.61076e-06
1.61135e-06
1.61065e-06
1.60694e-06
1.60293e-06
1.60293e-06
1.60293e-06
1.60293e-06
1.60293e-06
1.60293e-06
1.61076e-06
1.60876e-06
1.60756e-06
1.60293e-06
1.60293e-06
1.60293e-06
1.60293e-06
1.60293e-06
1.60293e-06
1.61056e-06
1.61198e-06
1.61082e-06
1.60791e-06
1.60293e-06
1.60293e-06
1.60293e-06
1.60293e-06
1.61111e-06
1.60962e-06
1.61162e-06
1.61085e-06
1.60879e-06
1.61009e-06
1.61074e-06
1.61079e-06
1.61056e-06
1.60961e-06
1.61184e-06
1.6118e-06
1.61128e-06
1.6088e-06
1.612e-06
1.61161e-06
1.5884e-06
1.58827e-06
1.58788e-06
1.58496e-06
1.58494e-06
1.58456e-06
1.58518e-06
1.58845e-06
1.58847e-06
1.58787e-06
1.58307e-06
1.58055e-06
1.58055e-06
1.58055e-06
1.58055e-06
1.58553e-06
1.58642e-06
1.58496e-06
1.58055e-06
1.58055e-06
1.58055e-06
1.58055e-06
1.58055e-06
1.58055e-06
1.58772e-06
1.58944e-06
1.58839e-06
1.58495e-06
1.58055e-06
1.58055e-06
1.58055e-06
1.58055e-06
1.58055e-06
1.58055e-06
1.58838e-06
1.58897e-06
1.58826e-06
1.58456e-06
1.58055e-06
1.58055e-06
1.58055e-06
1.58055e-06
1.58055e-06
1.58055e-06
1.58839e-06
1.58638e-06
1.58518e-06
1.58055e-06
1.58055e-06
1.58055e-06
1.58055e-06
1.58055e-06
1.58055e-06
1.58818e-06
1.5896e-06
1.58845e-06
1.58553e-06
1.58055e-06
1.58055e-06
1.58055e-06
1.58055e-06
1.58873e-06
1.58724e-06
1.58924e-06
1.58847e-06
1.58642e-06
1.58771e-06
1.58838e-06
1.5884e-06
1.58818e-06
1.58722e-06
1.58945e-06
1.58942e-06
1.58894e-06
1.58641e-06
1.58961e-06
1.58924e-06
1.56601e-06
1.56588e-06
1.5655e-06
1.56258e-06
1.56256e-06
1.56217e-06
1.5628e-06
1.56607e-06
1.56609e-06
1.56549e-06
1.56069e-06
1.55817e-06
1.55817e-06
1.55817e-06
1.55817e-06
1.56315e-06
1.56404e-06
1.56257e-06
1.55817e-06
1.55817e-06
1.55817e-06
1.55817e-06
1.55817e-06
1.55817e-06
1.56534e-06
1.56705e-06
1.56601e-06
1.56257e-06
1.55817e-06
1.55817e-06
1.55817e-06
1.55817e-06
1.55817e-06
1.55817e-06
1.566e-06
1.56659e-06
1.56588e-06
1.56218e-06
1.55817e-06
1.55817e-06
1.55817e-06
1.55817e-06
1.55817e-06
1.55817e-06
1.56601e-06
1.564e-06
1.56281e-06
1.55817e-06
1.55817e-06
1.55817e-06
1.55817e-06
1.55817e-06
1.55817e-06
1.5658e-06
1.56722e-06
1.56607e-06
1.56316e-06
1.55817e-06
1.55817e-06
1.55817e-06
1.55817e-06
1.56635e-06
1.56486e-06
1.56686e-06
1.56609e-06
1.56404e-06
1.56534e-06
1.566e-06
1.56601e-06
1.56579e-06
1.56485e-06
1.56708e-06
1.56705e-06
1.56659e-06
1.564e-06
1.56722e-06
1.56685e-06
1.54363e-06
1.5435e-06
1.54312e-06
1.5402e-06
1.54019e-06
1.5398e-06
1.54042e-06
1.54369e-06
1.54371e-06
1.54311e-06
1.53831e-06
1.53579e-06
1.53579e-06
1.53579e-06
1.53579e-06
1.54078e-06
1.54166e-06
1.5402e-06
1.53579e-06
1.53579e-06
1.53579e-06
1.53579e-06
1.53579e-06
1.53579e-06
1.54296e-06
1.54468e-06
1.54362e-06
1.5402e-06
1.53579e-06
1.53579e-06
1.53579e-06
1.53579e-06
1.53579e-06
1.53579e-06
1.54362e-06
1.54421e-06
1.54347e-06
1.53982e-06
1.53579e-06
1.53579e-06
1.53579e-06
1.53579e-06
1.53579e-06
1.53579e-06
1.54363e-06
1.54162e-06
1.54043e-06
1.53579e-06
1.53579e-06
1.53579e-06
1.53579e-06
1.53579e-06
1.53579e-06
1.54342e-06
1.54484e-06
1.54368e-06
1.54078e-06
1.5358e-06
1.5358e-06
1.5358e-06
1.53579e-06
1.54397e-06
1.54248e-06
1.54449e-06
1.54371e-06
1.54166e-06
1.54296e-06
1.54363e-06
1.54363e-06
1.54341e-06
1.54247e-06
1.5447e-06
1.54467e-06
1.54421e-06
1.54162e-06
1.54484e-06
1.54448e-06
1.52125e-06
1.52112e-06
1.52074e-06
1.51782e-06
1.51781e-06
1.51742e-06
1.51804e-06
1.52131e-06
1.52133e-06
1.52073e-06
1.51593e-06
1.51341e-06
1.51341e-06
1.51341e-06
1.51341e-06
1.5184e-06
1.51928e-06
1.51782e-06
1.51342e-06
1.51341e-06
1.51341e-06
1.51341e-06
1.51341e-06
1.51341e-06
1.52058e-06
1.5223e-06
1.5212e-06
1.5178e-06
1.51342e-06
1.51341e-06
1.51341e-06
1.51341e-06
1.51341e-06
1.51341e-06
1.52124e-06
1.52183e-06
1.52106e-06
1.51746e-06
1.51341e-06
1.51341e-06
1.51341e-06
1.51341e-06
1.51341e-06
1.51341e-06
1.52125e-06
1.51924e-06
1.51804e-06
1.51341e-06
1.51341e-06
1.51341e-06
1.51341e-06
1.51341e-06
1.51341e-06
1.52104e-06
1.52246e-06
1.52131e-06
1.5184e-06
1.51341e-06
1.51341e-06
1.51341e-06
1.51341e-06
1.52159e-06
1.5201e-06
1.52211e-06
1.52134e-06
1.51928e-06
1.52058e-06
1.52124e-06
1.52125e-06
1.52104e-06
1.52009e-06
1.52232e-06
1.52229e-06
1.52183e-06
1.51924e-06
1.52246e-06
1.5221e-06
1.49887e-06
1.49874e-06
1.49837e-06
1.49544e-06
1.49543e-06
1.49504e-06
1.49567e-06
1.49893e-06
1.49895e-06
1.49835e-06
1.49355e-06
1.49103e-06
1.49103e-06
1.49103e-06
1.49103e-06
1.49602e-06
1.4969e-06
1.49543e-06
1.49103e-06
1.49103e-06
1.49103e-06
1.49103e-06
1.49103e-06
1.49103e-06
1.4982e-06
1.49992e-06
1.49885e-06
1.49543e-06
1.49103e-06
1.49104e-06
1.49103e-06
1.49103e-06
1.49103e-06
1.49103e-06
1.49886e-06
1.49945e-06
1.49872e-06
1.49507e-06
1.49103e-06
1.49104e-06
1.49103e-06
1.49103e-06
1.49103e-06
1.49103e-06
1.49887e-06
1.49686e-06
1.49566e-06
1.49103e-06
1.49104e-06
1.49104e-06
1.49103e-06
1.49103e-06
1.49103e-06
1.49866e-06
1.50008e-06
1.49892e-06
1.49602e-06
1.49104e-06
1.49104e-06
1.49104e-06
1.49103e-06
1.49921e-06
1.49772e-06
1.49973e-06
1.49896e-06
1.4969e-06
1.4982e-06
1.49886e-06
1.49887e-06
1.49865e-06
1.49771e-06
1.49994e-06
1.49991e-06
1.49945e-06
1.49686e-06
1.50008e-06
1.49972e-06
1.4765e-06
1.47636e-06
1.47599e-06
1.47306e-06
1.47305e-06
1.47266e-06
1.47329e-06
1.47655e-06
1.47657e-06
1.47597e-06
1.47117e-06
1.46865e-06
1.46865e-06
1.46865e-06
1.46865e-06
1.47364e-06
1.47452e-06
1.47306e-06
1.46865e-06
1.46865e-06
1.46865e-06
1.46865e-06
1.46865e-06
1.46865e-06
1.47582e-06
1.47754e-06
1.47649e-06
1.47305e-06
1.46866e-06
1.46866e-06
1.46866e-06
1.46865e-06
1.46865e-06
1.46865e-06
1.47648e-06
1.47707e-06
1.47636e-06
1.47267e-06
1.46866e-06
1.46866e-06
1.46866e-06
1.46866e-06
1.46865e-06
1.46865e-06
1.47649e-06
1.47448e-06
1.47329e-06
1.46866e-06
1.46866e-06
1.46866e-06
1.46866e-06
1.46866e-06
1.46866e-06
1.47628e-06
1.4777e-06
1.47655e-06
1.47364e-06
1.46866e-06
1.46866e-06
1.46866e-06
1.46866e-06
1.47683e-06
1.47534e-06
1.47735e-06
1.47658e-06
1.47452e-06
1.47582e-06
1.47649e-06
1.47649e-06
1.47627e-06
1.47533e-06
1.47756e-06
1.47753e-06
1.47708e-06
1.47448e-06
1.47771e-06
1.47734e-06
1.45412e-06
1.45398e-06
1.45361e-06
1.45068e-06
1.45067e-06
1.45028e-06
1.45091e-06
1.45417e-06
1.45419e-06
1.45359e-06
1.44879e-06
1.44627e-06
1.44627e-06
1.44628e-06
1.44627e-06
1.45126e-06
1.45214e-06
1.45068e-06
1.44627e-06
1.44628e-06
1.44628e-06
1.44628e-06
1.44628e-06
1.44628e-06
1.45344e-06
1.45516e-06
1.45412e-06
1.45067e-06
1.44627e-06
1.44628e-06
1.44628e-06
1.44628e-06
1.44628e-06
1.44628e-06
1.4541e-06
1.45469e-06
1.45398e-06
1.45028e-06
1.44628e-06
1.44628e-06
1.44628e-06
1.44628e-06
1.44628e-06
1.44628e-06
1.45411e-06
1.4521e-06
1.45091e-06
1.44627e-06
1.44628e-06
1.44628e-06
1.44628e-06
1.44628e-06
1.44628e-06
1.4539e-06
1.45532e-06
1.45417e-06
1.45126e-06
1.44628e-06
1.44628e-06
1.44628e-06
1.44628e-06
1.45445e-06
1.45296e-06
1.45497e-06