/*--------------------------------*- C++ -*----------------------------------*\
| =========                 |                                                 |
| \\      /  F ield         | OpenFOAM: The Open Source CFD Toolbox           |
|  \\    /   O peration     | Version:  v2012                                 |
|   \\  /    A nd           | Website:  www.openfoam.com                      |
|    \\/     M anipulation  |                                                 |
\*---------------------------------------------------------------------------*/
FoamFile
{
    version     2.0;
    format      ascii;
    class       volScalarField;
    location    "0.015";
    object      p;
}
// * * * * * * * * * * * * * * * * * * * * * * * * * * * * * * * * * * * * * //

dimensions      [0 2 -2 0 0 0 0];


internalField   nonuniform List<scalar> 
244288
(
3.03735e-06
3.03562e-06
3.03532e-06
3.03634e-06
3.03646e-06
3.03578e-06
3.03482e-06
3.03557e-06
3.03625e-06
3.03647e-06
3.03644e-06
3.03623e-06
3.03617e-06
3.03603e-06
3.03575e-06
3.03524e-06
3.03643e-06
3.03626e-06
3.03581e-06
3.03554e-06
3.03566e-06
3.03599e-06
3.03605e-06
3.03461e-06
3.03627e-06
3.03641e-06
3.0358e-06
3.03517e-06
3.03489e-06
3.03508e-06
3.03562e-06
3.03613e-06
3.03585e-06
3.03738e-06
3.03649e-06
3.03624e-06
3.03555e-06
3.03489e-06
3.03461e-06
3.03481e-06
3.03537e-06
3.03594e-06
3.0361e-06
3.03589e-06
3.03622e-06
3.03567e-06
3.03508e-06
3.03481e-06
3.03497e-06
3.03545e-06
3.03582e-06
3.03521e-06
3.03491e-06
3.03607e-06
3.03598e-06
3.0356e-06
3.03537e-06
3.03546e-06
3.03569e-06
3.03556e-06
3.03411e-06
3.03573e-06
3.03599e-06
3.03609e-06
3.03596e-06
3.03588e-06
3.03561e-06
3.0352e-06
3.0345e-06
3.03576e-06
3.03613e-06
3.03532e-06
3.03421e-06
2.99977e-06
2.99664e-06
2.99439e-06
2.9941e-06
2.99382e-06
2.99447e-06
2.9912e-06
2.99553e-06
2.99618e-06
2.99437e-06
2.99347e-06
2.98989e-06
2.98927e-06
2.9891e-06
2.9895e-06
2.99527e-06
2.99319e-06
2.99362e-06
2.98982e-06
2.98985e-06
2.98969e-06
2.98959e-06
2.98961e-06
2.98955e-06
2.99504e-06
2.99789e-06
2.99778e-06
2.99333e-06
2.98925e-06
2.98968e-06
2.98976e-06
2.98969e-06
2.9895e-06
2.98901e-06
2.9941e-06
3.00068e-06
2.99785e-06
2.9946e-06
2.98913e-06
2.98959e-06
2.98969e-06
2.98962e-06
2.9894e-06
2.98885e-06
2.99413e-06
2.99393e-06
2.99179e-06
2.98951e-06
2.98959e-06
2.98948e-06
2.98939e-06
2.98936e-06
2.98921e-06
2.99298e-06
2.99177e-06
2.99604e-06
2.99525e-06
2.98947e-06
2.98896e-06
2.98884e-06
2.98915e-06
2.99528e-06
2.99502e-06
2.99533e-06
2.99635e-06
2.99299e-06
2.99463e-06
2.99376e-06
2.9942e-06
2.9932e-06
2.99442e-06
3.00212e-06
2.99677e-06
2.99911e-06
2.99426e-06
2.99349e-06
2.99584e-06
2.96799e-06
2.96874e-06
2.96376e-06
2.96556e-06
2.9659e-06
2.96535e-06
2.96562e-06
2.96934e-06
2.96737e-06
2.96377e-06
2.96374e-06
2.97027e-06
2.96766e-06
2.9675e-06
2.96965e-06
2.97293e-06
2.96519e-06
2.96558e-06
2.97023e-06
2.96841e-06
2.96721e-06
2.96713e-06
2.96819e-06
2.97014e-06
2.97478e-06
2.97108e-06
2.96832e-06
2.96609e-06
2.96776e-06
2.96723e-06
2.9667e-06
2.96666e-06
2.96715e-06
2.96768e-06
2.97244e-06
2.97027e-06
2.96909e-06
2.96537e-06
2.96747e-06
2.96712e-06
2.96667e-06
2.96665e-06
2.96712e-06
2.96761e-06
2.97092e-06
2.96477e-06
2.96551e-06
2.96945e-06
2.96816e-06
2.96716e-06
2.96712e-06
2.96814e-06
2.96999e-06
2.9736e-06
2.97026e-06
2.96935e-06
2.97293e-06
2.97023e-06
2.96776e-06
2.96758e-06
2.96963e-06
2.97724e-06
2.97005e-06
2.96793e-06
2.96737e-06
2.96528e-06
2.97493e-06
2.97268e-06
2.97109e-06
2.97376e-06
2.97055e-06
2.97872e-06
2.97122e-06
2.97063e-06
2.96518e-06
2.97035e-06
2.96828e-06
2.93041e-06
2.93104e-06
2.92698e-06
2.92653e-06
2.92754e-06
2.9275e-06
2.92748e-06
2.93252e-06
2.93184e-06
2.9274e-06
2.92387e-06
2.92664e-06
2.92594e-06
2.92606e-06
2.92712e-06
2.93847e-06
2.92825e-06
2.92651e-06
2.92677e-06
2.9268e-06
2.92668e-06
2.92678e-06
2.9271e-06
2.92731e-06
2.94174e-06
2.93412e-06
2.93044e-06
2.92768e-06
2.926e-06
2.92671e-06
2.9269e-06
2.92695e-06
2.92685e-06
2.92618e-06
2.93879e-06
2.93281e-06
2.93085e-06
2.92759e-06
2.92612e-06
2.92681e-06
2.92696e-06
2.92699e-06
2.92687e-06
2.92616e-06
2.9368e-06
2.92776e-06
2.92744e-06
2.92721e-06
2.92716e-06
2.92689e-06
2.92689e-06
2.92717e-06
2.92713e-06
2.94052e-06
2.93293e-06
2.9325e-06
2.93845e-06
2.92738e-06
2.92622e-06
2.92623e-06
2.92745e-06
2.94581e-06
2.93503e-06
2.93126e-06
2.93182e-06
2.92831e-06
2.9419e-06
2.93895e-06
2.93701e-06
2.94086e-06
2.93571e-06
2.94299e-06
2.93449e-06
2.93314e-06
2.92819e-06
2.93326e-06
2.93193e-06
2.89954e-06
2.90002e-06
2.89761e-06
2.89565e-06
2.89594e-06
2.89597e-06
2.89635e-06
2.90275e-06
2.9021e-06
2.89776e-06
2.89291e-06
2.89175e-06
2.89158e-06
2.89162e-06
2.89189e-06
2.90929e-06
2.89806e-06
2.8956e-06
2.89181e-06
2.89185e-06
2.89185e-06
2.89189e-06
2.89197e-06
2.89206e-06
2.91354e-06
2.90316e-06
2.89941e-06
2.89598e-06
2.89164e-06
2.89188e-06
2.89196e-06
2.89197e-06
2.89192e-06
2.89169e-06
2.91053e-06
2.90137e-06
2.90001e-06
2.89601e-06
2.89169e-06
2.89192e-06
2.89199e-06
2.892e-06
2.89193e-06
2.89165e-06
2.90843e-06
2.89649e-06
2.89654e-06
2.89195e-06
2.89201e-06
2.89195e-06
2.89196e-06
2.89201e-06
2.89189e-06
2.91248e-06
2.9018e-06
2.90284e-06
2.90938e-06
2.89205e-06
2.89172e-06
2.89174e-06
2.89212e-06
2.91877e-06
2.90602e-06
2.90118e-06
2.90225e-06
2.89817e-06
2.91357e-06
2.91052e-06
2.90846e-06
2.91268e-06
2.90654e-06
2.91362e-06
2.90301e-06
2.90125e-06
2.89643e-06
2.90171e-06
2.90121e-06
2.86818e-06
2.86814e-06
2.86712e-06
2.86453e-06
2.86422e-06
2.86431e-06
2.86502e-06
2.87229e-06
2.8721e-06
2.86697e-06
2.86196e-06
2.85911e-06
2.8591e-06
2.85912e-06
2.8592e-06
2.87898e-06
2.8678e-06
2.86446e-06
2.85915e-06
2.85918e-06
2.85919e-06
2.85921e-06
2.85925e-06
2.85929e-06
2.88339e-06
2.87267e-06
2.86789e-06
2.86433e-06
2.85913e-06
2.85922e-06
2.85925e-06
2.85926e-06
2.85925e-06
2.85918e-06
2.88022e-06
2.87019e-06
2.8681e-06
2.86435e-06
2.85921e-06
2.85927e-06
2.85928e-06
2.85928e-06
2.85926e-06
2.85917e-06
2.87811e-06
2.86511e-06
2.86571e-06
2.85932e-06
2.85933e-06
2.8593e-06
2.85929e-06
2.85929e-06
2.85924e-06
2.88224e-06
2.87069e-06
2.87259e-06
2.87923e-06
2.85941e-06
2.85926e-06
2.85924e-06
2.85935e-06
2.8891e-06
2.87581e-06
2.87066e-06
2.8723e-06
2.86789e-06
2.88343e-06
2.88028e-06
2.8782e-06
2.88245e-06
2.87664e-06
2.88384e-06
2.87266e-06
2.87025e-06
2.86518e-06
2.87086e-06
2.871e-06
2.83653e-06
2.83652e-06
2.83618e-06
2.83293e-06
2.83246e-06
2.83274e-06
2.83345e-06
2.84086e-06
2.84099e-06
2.83558e-06
2.83057e-06
2.82714e-06
2.82713e-06
2.82714e-06
2.82717e-06
2.84769e-06
2.83642e-06
2.83286e-06
2.82715e-06
2.82717e-06
2.82717e-06
2.82718e-06
2.82718e-06
2.82716e-06
2.85201e-06
2.84124e-06
2.83625e-06
2.8326e-06
2.82719e-06
2.8272e-06
2.8272e-06
2.8272e-06
2.82719e-06
2.82716e-06
2.84877e-06
2.8386e-06
2.83737e-06
2.83259e-06
2.82724e-06
2.82724e-06
2.82723e-06
2.82722e-06
2.8272e-06
2.82717e-06
2.84676e-06
2.83344e-06
2.83402e-06
2.82728e-06
2.82727e-06
2.82724e-06
2.82723e-06
2.82721e-06
2.82719e-06
2.85082e-06
2.83908e-06
2.8413e-06
2.84793e-06
2.8273e-06
2.82724e-06
2.82722e-06
2.82722e-06
2.85788e-06
2.84452e-06
2.83923e-06
2.84124e-06
2.83675e-06
2.85222e-06
2.84892e-06
2.84687e-06
2.85116e-06
2.84527e-06
2.85272e-06
2.84138e-06
2.83875e-06
2.83355e-06
2.83933e-06
2.83968e-06
2.8048e-06
2.80482e-06
2.80461e-06
2.80129e-06
2.80069e-06
2.80102e-06
2.80177e-06
2.80921e-06
2.80932e-06
2.80401e-06
2.799e-06
2.79531e-06
2.79531e-06
2.79531e-06
2.79533e-06
2.8159e-06
2.8048e-06
2.80123e-06
2.7953e-06
2.79532e-06
2.79532e-06
2.79533e-06
2.79534e-06
2.79536e-06
2.8203e-06
2.80954e-06
2.80453e-06
2.80085e-06
2.79531e-06
2.79532e-06
2.79533e-06
2.79533e-06
2.79534e-06
2.79533e-06
2.81711e-06
2.80691e-06
2.80532e-06
2.80078e-06
2.79532e-06
2.79533e-06
2.79534e-06
2.79534e-06
2.79534e-06
2.79533e-06
2.81508e-06
2.80176e-06
2.80206e-06
2.79534e-06
2.79535e-06
2.79535e-06
2.79535e-06
2.79535e-06
2.79533e-06
2.81912e-06
2.80739e-06
2.80941e-06
2.81614e-06
2.79537e-06
2.79535e-06
2.79536e-06
2.79539e-06
2.82628e-06
2.81282e-06
2.80757e-06
2.80943e-06
2.80487e-06
2.82043e-06
2.81723e-06
2.81523e-06
2.81944e-06
2.81362e-06
2.82098e-06
2.80956e-06
2.80696e-06
2.80189e-06
2.8076e-06
2.80795e-06
2.77311e-06
2.7731e-06
2.77302e-06
2.7696e-06
2.76898e-06
2.76927e-06
2.77005e-06
2.77752e-06
2.77762e-06
2.7725e-06
2.76738e-06
2.76356e-06
2.76353e-06
2.76352e-06
2.76351e-06
2.7843e-06
2.77311e-06
2.76978e-06
2.76355e-06
2.76353e-06
2.76352e-06
2.76351e-06
2.76351e-06
2.76351e-06
2.78859e-06
2.77782e-06
2.77346e-06
2.76893e-06
2.7635e-06
2.7635e-06
2.7635e-06
2.7635e-06
2.7635e-06
2.76349e-06
2.78537e-06
2.77515e-06
2.77334e-06
2.76894e-06
2.76344e-06
2.76347e-06
2.76348e-06
2.76349e-06
2.76349e-06
2.76348e-06
2.78332e-06
2.76995e-06
2.76979e-06
2.76343e-06
2.76344e-06
2.76346e-06
2.76347e-06
2.76349e-06
2.7635e-06
2.7874e-06
2.7756e-06
2.77739e-06
2.78418e-06
2.76342e-06
2.76344e-06
2.76346e-06
2.76348e-06
2.79456e-06
2.78111e-06
2.77582e-06
2.77741e-06
2.77295e-06
2.78855e-06
2.78531e-06
2.78329e-06
2.7876e-06
2.78192e-06
2.78928e-06
2.7777e-06
2.7751e-06
2.76994e-06
2.77576e-06
2.77618e-06
2.74136e-06
2.74133e-06
2.74132e-06
2.73787e-06
2.73722e-06
2.73751e-06
2.73828e-06
2.74575e-06
2.74585e-06
2.74084e-06
2.73563e-06
2.73177e-06
2.73174e-06
2.73172e-06
2.73171e-06
2.75252e-06
2.74133e-06
2.73796e-06
2.73173e-06
2.73174e-06
2.73172e-06
2.73171e-06
2.7317e-06
2.73169e-06
2.75682e-06
2.74602e-06
2.74183e-06
2.73729e-06
2.7317e-06
2.73171e-06
2.7317e-06
2.73169e-06
2.73168e-06
2.73168e-06
2.75357e-06
2.74333e-06
2.74187e-06
2.7372e-06
2.73164e-06
2.73167e-06
2.73167e-06
2.73167e-06
2.73167e-06
2.73167e-06
2.75153e-06
2.73812e-06
2.73779e-06
2.73163e-06
2.73163e-06
2.73164e-06
2.73165e-06
2.73166e-06
2.73166e-06
2.75558e-06
2.74379e-06
2.74546e-06
2.75229e-06
2.73161e-06
2.73161e-06
2.73163e-06
2.73164e-06
2.76275e-06
2.74931e-06
2.74402e-06
2.74562e-06
2.7411e-06
2.75671e-06
2.75356e-06
2.75153e-06
2.7558e-06
2.75014e-06
2.75749e-06
2.74578e-06
2.74321e-06
2.73818e-06
2.74394e-06
2.74435e-06
2.7095e-06
2.70951e-06
2.70938e-06
2.70599e-06
2.70537e-06
2.70569e-06
2.70646e-06
2.71394e-06
2.71404e-06
2.70895e-06
2.70376e-06
2.69992e-06
2.6999e-06
2.69989e-06
2.69988e-06
2.72071e-06
2.70952e-06
2.70614e-06
2.69992e-06
2.6999e-06
2.69989e-06
2.69988e-06
2.69988e-06
2.69988e-06
2.72502e-06
2.71421e-06
2.70976e-06
2.70532e-06
2.69987e-06
2.69987e-06
2.69987e-06
2.69987e-06
2.69987e-06
2.69987e-06
2.72177e-06
2.7115e-06
2.70985e-06
2.70526e-06
2.69983e-06
2.69985e-06
2.69985e-06
2.69986e-06
2.69986e-06
2.69987e-06
2.71974e-06
2.70635e-06
2.70609e-06
2.69981e-06
2.69983e-06
2.69984e-06
2.69985e-06
2.69985e-06
2.69986e-06
2.72379e-06
2.712e-06
2.71372e-06
2.7205e-06
2.69981e-06
2.69983e-06
2.69984e-06
2.69985e-06
2.73095e-06
2.71751e-06
2.7122e-06
2.71384e-06
2.70938e-06
2.72497e-06
2.72177e-06
2.71974e-06
2.72396e-06
2.71833e-06
2.72568e-06
2.71402e-06
2.71145e-06
2.70638e-06
2.71213e-06
2.71255e-06
2.67766e-06
2.67766e-06
2.67747e-06
2.6741e-06
2.6735e-06
2.67382e-06
2.67462e-06
2.6821e-06
2.68221e-06
2.67691e-06
2.67182e-06
2.66804e-06
2.66804e-06
2.66805e-06
2.66805e-06
2.68888e-06
2.67769e-06
2.67405e-06
2.66802e-06
2.66804e-06
2.66804e-06
2.66805e-06
2.66805e-06
2.66805e-06
2.6932e-06
2.68241e-06
2.67762e-06
2.67352e-06
2.66805e-06
2.66805e-06
2.66805e-06
2.66805e-06
2.66805e-06
2.66805e-06
2.68995e-06
2.67974e-06
2.67784e-06
2.67384e-06
2.66806e-06
2.66805e-06
2.66805e-06
2.66805e-06
2.66805e-06
2.66806e-06
2.68793e-06
2.67455e-06
2.6746e-06
2.66806e-06
2.66806e-06
2.66806e-06
2.66806e-06
2.66806e-06
2.66806e-06
2.69198e-06
2.6802e-06
2.68217e-06
2.68884e-06
2.66806e-06
2.66806e-06
2.66806e-06
2.66806e-06
2.69913e-06
2.68571e-06
2.6804e-06
2.6822e-06
2.67767e-06
2.69325e-06
2.68998e-06
2.68798e-06
2.69225e-06
2.68655e-06
2.69389e-06
2.68228e-06
2.67963e-06
2.67454e-06
2.68037e-06
2.6808e-06
2.64578e-06
2.6458e-06
2.6456e-06
2.64224e-06
2.64164e-06
2.64197e-06
2.64278e-06
2.65027e-06
2.65038e-06
2.64501e-06
2.63991e-06
2.63618e-06
2.6362e-06
2.63621e-06
2.63622e-06
2.65705e-06
2.64587e-06
2.64221e-06
2.63623e-06
2.63621e-06
2.63622e-06
2.63623e-06
2.63624e-06
2.63624e-06
2.66139e-06
2.65059e-06
2.64572e-06
2.6418e-06
2.63622e-06
2.63623e-06
2.63624e-06
2.63624e-06
2.63625e-06
2.63625e-06
2.65815e-06
2.64791e-06
2.64655e-06
2.64163e-06
2.63626e-06
2.63626e-06
2.63626e-06
2.63626e-06
2.63626e-06
2.63626e-06
2.65612e-06
2.64274e-06
2.64343e-06
2.6363e-06
2.63629e-06
2.63629e-06
2.63628e-06
2.63627e-06
2.63627e-06
2.6602e-06
2.64841e-06
2.65059e-06
2.65726e-06
2.63633e-06
2.63631e-06
2.6363e-06
2.63629e-06
2.6674e-06
2.65394e-06
2.64862e-06
2.65058e-06
2.64602e-06
2.66153e-06
2.65826e-06
2.6562e-06
2.6605e-06
2.65479e-06
2.66212e-06
2.65056e-06
2.64794e-06
2.64279e-06
2.64862e-06
2.64904e-06
2.61395e-06
2.61397e-06
2.61379e-06
2.61039e-06
2.60981e-06
2.61014e-06
2.61095e-06
2.61844e-06
2.61857e-06
2.61312e-06
2.60803e-06
2.60434e-06
2.60437e-06
2.60439e-06
2.6044e-06
2.62524e-06
2.61406e-06
2.61036e-06
2.60437e-06
2.60436e-06
2.60439e-06
2.60441e-06
2.60442e-06
2.60443e-06
2.62957e-06
2.61877e-06
2.61366e-06
2.60995e-06
2.6044e-06
2.60441e-06
2.60442e-06
2.60443e-06
2.60444e-06
2.60444e-06
2.62634e-06
2.61608e-06
2.61506e-06
2.60987e-06
2.60445e-06
2.60447e-06
2.60446e-06
2.60446e-06
2.60446e-06
2.60446e-06
2.62432e-06
2.61094e-06
2.61142e-06
2.60449e-06
2.60451e-06
2.60449e-06
2.60448e-06
2.60447e-06
2.60447e-06
2.6284e-06
2.61661e-06
2.61879e-06
2.62541e-06
2.60456e-06
2.60453e-06
2.6045e-06
2.60449e-06
2.63559e-06
2.62214e-06
2.61682e-06
2.61882e-06
2.61429e-06
2.62979e-06
2.62656e-06
2.62451e-06
2.62869e-06
2.62299e-06
2.63033e-06
2.61881e-06
2.61615e-06
2.61101e-06
2.61682e-06
2.61724e-06
2.58215e-06
2.58216e-06
2.58192e-06
2.57856e-06
2.578e-06
2.57834e-06
2.57915e-06
2.58663e-06
2.58675e-06
2.5813e-06
2.57626e-06
2.57255e-06
2.57258e-06
2.5726e-06
2.5726e-06
2.59341e-06
2.58224e-06
2.57847e-06
2.57256e-06
2.57258e-06
2.5726e-06
2.57261e-06
2.57262e-06
2.57263e-06
2.59776e-06
2.58697e-06
2.58154e-06
2.57807e-06
2.57259e-06
2.57261e-06
2.57262e-06
2.57262e-06
2.57263e-06
2.57264e-06
2.59454e-06
2.58429e-06
2.58177e-06
2.57798e-06
2.57264e-06
2.57264e-06
2.57264e-06
2.57264e-06
2.57264e-06
2.57265e-06
2.59251e-06
2.57912e-06
2.57992e-06
2.57267e-06
2.57268e-06
2.57267e-06
2.57266e-06
2.57265e-06
2.57266e-06
2.59659e-06
2.5848e-06
2.58708e-06
2.59378e-06
2.57271e-06
2.57269e-06
2.57267e-06
2.57265e-06
2.60378e-06
2.59034e-06
2.58502e-06
2.58698e-06
2.58242e-06
2.59792e-06
2.59465e-06
2.59264e-06
2.59689e-06
2.59119e-06
2.59852e-06
2.58704e-06
2.58436e-06
2.57919e-06
2.58504e-06
2.58544e-06
2.55033e-06
2.55036e-06
2.55021e-06
2.54681e-06
2.54625e-06
2.54656e-06
2.54736e-06
2.55484e-06
2.55496e-06
2.54969e-06
2.54457e-06
2.54079e-06
2.54079e-06
2.5408e-06
2.54081e-06
2.56162e-06
2.55044e-06
2.54682e-06
2.54077e-06
2.54079e-06
2.5408e-06
2.54081e-06
2.54082e-06
2.54083e-06
2.56596e-06
2.55517e-06
2.5504e-06
2.5464e-06
2.54078e-06
2.5408e-06
2.54081e-06
2.54082e-06
2.54083e-06
2.54084e-06
2.56274e-06
2.55249e-06
2.55055e-06
2.54631e-06
2.54079e-06
2.5408e-06
2.54082e-06
2.54083e-06
2.54084e-06
2.54085e-06
2.56073e-06
2.54735e-06
2.54752e-06
2.54079e-06
2.54081e-06
2.54083e-06
2.54083e-06
2.54084e-06
2.54087e-06
2.56481e-06
2.55301e-06
2.55495e-06
2.5616e-06
2.54085e-06
2.54084e-06
2.54084e-06
2.54082e-06
2.57202e-06
2.55856e-06
2.55324e-06
2.55491e-06
2.55043e-06
2.566e-06
2.56278e-06
2.56079e-06
2.56506e-06
2.55947e-06
2.56674e-06
2.55513e-06
2.55259e-06
2.54745e-06
2.55317e-06
2.55363e-06
2.51857e-06
2.51858e-06
2.51844e-06
2.51504e-06
2.51441e-06
2.51476e-06
2.51553e-06
2.52304e-06
2.52316e-06
2.51789e-06
2.51276e-06
2.50897e-06
2.50899e-06
2.509e-06
2.50901e-06
2.52982e-06
2.51864e-06
2.51501e-06
2.50898e-06
2.50898e-06
2.50899e-06
2.50901e-06
2.50902e-06
2.50904e-06
2.53417e-06
2.52337e-06
2.51851e-06
2.51455e-06
2.50896e-06
2.50897e-06
2.50899e-06
2.50901e-06
2.50903e-06
2.50905e-06
2.53095e-06
2.5207e-06
2.51865e-06
2.51453e-06
2.50894e-06
2.50896e-06
2.50899e-06
2.50902e-06
2.50905e-06
2.50907e-06
2.52894e-06
2.51555e-06
2.51556e-06
2.50893e-06
2.50895e-06
2.50899e-06
2.50903e-06
2.50907e-06
2.50909e-06
2.53304e-06
2.52123e-06
2.52312e-06
2.52977e-06
2.50892e-06
2.50897e-06
2.50904e-06
2.50911e-06
2.54021e-06
2.52677e-06
2.52148e-06
2.523e-06
2.51848e-06
2.53407e-06
2.53088e-06
2.5287e-06
2.53346e-06
2.52771e-06
2.53507e-06
2.52316e-06
2.52055e-06
2.51542e-06
2.52161e-06
2.52201e-06
2.48679e-06
2.48678e-06
2.48666e-06
2.48324e-06
2.48261e-06
2.48297e-06
2.48372e-06
2.49123e-06
2.49135e-06
2.48614e-06
2.48098e-06
2.47718e-06
2.47719e-06
2.4772e-06
2.4772e-06
2.49801e-06
2.48684e-06
2.48317e-06
2.47715e-06
2.47717e-06
2.47718e-06
2.4772e-06
2.47721e-06
2.47721e-06
2.50238e-06
2.49158e-06
2.48676e-06
2.48266e-06
2.47714e-06
2.47716e-06
2.47718e-06
2.4772e-06
2.47722e-06
2.47724e-06
2.49916e-06
2.48893e-06
2.48668e-06
2.48289e-06
2.47713e-06
2.47715e-06
2.47718e-06
2.47721e-06
2.47724e-06
2.47726e-06
2.49716e-06
2.48375e-06
2.48365e-06
2.47709e-06
2.47715e-06
2.47717e-06
2.47722e-06
2.47724e-06
2.47727e-06
2.50126e-06
2.48945e-06
2.49113e-06
2.49786e-06
2.47717e-06
2.47718e-06
2.47722e-06
2.47723e-06
2.5085e-06
2.49503e-06
2.48971e-06
2.49107e-06
2.48652e-06
2.5022e-06
2.49902e-06
2.4971e-06
2.50154e-06
2.49595e-06
2.50332e-06
2.49122e-06
2.48868e-06
2.48353e-06
2.48988e-06
2.49023e-06
2.45496e-06
2.45497e-06
2.45486e-06
2.45146e-06
2.45083e-06
2.45116e-06
2.45195e-06
2.45943e-06
2.45954e-06
2.45438e-06
2.4492e-06
2.44538e-06
2.44538e-06
2.44539e-06
2.44539e-06
2.4662e-06
2.45502e-06
2.45144e-06
2.44537e-06
2.44538e-06
2.44538e-06
2.44539e-06
2.4454e-06
2.4454e-06
2.47052e-06
2.45974e-06
2.45509e-06
2.45094e-06
2.44537e-06
2.44538e-06
2.44539e-06
2.44539e-06
2.4454e-06
2.44541e-06
2.4673e-06
2.45707e-06
2.45495e-06
2.45083e-06
2.44536e-06
2.44538e-06
2.44539e-06
2.4454e-06
2.44541e-06
2.44542e-06
2.46529e-06
2.45195e-06
2.45178e-06
2.44535e-06
2.44537e-06
2.44538e-06
2.4454e-06
2.44543e-06
2.44544e-06
2.46937e-06
2.4576e-06
2.45935e-06
2.46613e-06
2.44538e-06
2.44537e-06
2.44539e-06
2.44541e-06
2.4766e-06
2.46311e-06
2.45784e-06
2.45932e-06
2.45482e-06
2.47051e-06
2.46725e-06
2.46519e-06
2.46972e-06
2.46408e-06
2.47141e-06
2.45947e-06
2.45683e-06
2.45165e-06
2.45798e-06
2.45833e-06
2.42317e-06
2.42316e-06
2.42306e-06
2.41964e-06
2.419e-06
2.41935e-06
2.4201e-06
2.4276e-06
2.42771e-06
2.42255e-06
2.41739e-06
2.41357e-06
2.41357e-06
2.41357e-06
2.41357e-06
2.43437e-06
2.42319e-06
2.41964e-06
2.41358e-06
2.41357e-06
2.41357e-06
2.41357e-06
2.41356e-06
2.41356e-06
2.43869e-06
2.42791e-06
2.4232e-06
2.41907e-06
2.41358e-06
2.41358e-06
2.41357e-06
2.41356e-06
2.41356e-06
2.41355e-06
2.43545e-06
2.42523e-06
2.4238e-06
2.41935e-06
2.41359e-06
2.41358e-06
2.41357e-06
2.41355e-06
2.41354e-06
2.41354e-06
2.43341e-06
2.42008e-06
2.42009e-06
2.41361e-06
2.4136e-06
2.41356e-06
2.41353e-06
2.41352e-06
2.41351e-06
2.43747e-06
2.4257e-06
2.42767e-06
2.43449e-06
2.41361e-06
2.41357e-06
2.41352e-06
2.41351e-06
2.44458e-06
2.43115e-06
2.4259e-06
2.42766e-06
2.42325e-06
2.43896e-06
2.43569e-06
2.43337e-06
2.43768e-06
2.43194e-06
2.43938e-06
2.42825e-06
2.42557e-06
2.41991e-06
2.42572e-06
2.42616e-06
2.39139e-06
2.39135e-06
2.39126e-06
2.38784e-06
2.38731e-06
2.3874e-06
2.38833e-06
2.3958e-06
2.3959e-06
2.39075e-06
2.38559e-06
2.38176e-06
2.38176e-06
2.38176e-06
2.38176e-06
2.40257e-06
2.39138e-06
2.38785e-06
2.38177e-06
2.38176e-06
2.38176e-06
2.38176e-06
2.38176e-06
2.38176e-06
2.40687e-06
2.39609e-06
2.39137e-06
2.38736e-06
2.38177e-06
2.38177e-06
2.38176e-06
2.38176e-06
2.38176e-06
2.38176e-06
2.40364e-06
2.39342e-06
2.39197e-06
2.3874e-06
2.38178e-06
2.38177e-06
2.38176e-06
2.38175e-06
2.38175e-06
2.38175e-06
2.40161e-06
2.38827e-06
2.38833e-06
2.38178e-06
2.38178e-06
2.38176e-06
2.38175e-06
2.38174e-06
2.38174e-06
2.40564e-06
2.39386e-06
2.3959e-06
2.40263e-06
2.3818e-06
2.38177e-06
2.38174e-06
2.38173e-06
2.41276e-06
2.39932e-06
2.39406e-06
2.39586e-06
2.3914e-06
2.40705e-06
2.40381e-06
2.40161e-06
2.40586e-06
2.40009e-06
2.40754e-06
2.3962e-06
2.39351e-06
2.3883e-06
2.39388e-06
2.39419e-06
2.35954e-06
2.35956e-06
2.35946e-06
2.35606e-06
2.35541e-06
2.35564e-06
2.35653e-06
2.36401e-06
2.36411e-06
2.35894e-06
2.35378e-06
2.34996e-06
2.34996e-06
2.34996e-06
2.34997e-06
2.37077e-06
2.35959e-06
2.35603e-06
2.34996e-06
2.34996e-06
2.34996e-06
2.34996e-06
2.34997e-06
2.34997e-06
2.37507e-06
2.36431e-06
2.35954e-06
2.35548e-06
2.34996e-06
2.34995e-06
2.34996e-06
2.34996e-06
2.34997e-06
2.34998e-06
2.37186e-06
2.36163e-06
2.35958e-06
2.35573e-06
2.34994e-06
2.34994e-06
2.34995e-06
2.34997e-06
2.34998e-06
2.34999e-06
2.36984e-06
2.35649e-06
2.35644e-06
2.34992e-06
2.34991e-06
2.34993e-06
2.34997e-06
2.35001e-06
2.35001e-06
2.37393e-06
2.36212e-06
2.36403e-06
2.37073e-06
2.34992e-06
2.34993e-06
2.34997e-06
2.35e-06
2.38112e-06
2.36765e-06
2.36233e-06
2.36395e-06
2.35942e-06
2.37501e-06
2.37173e-06
2.36965e-06
2.37433e-06
2.36859e-06
2.3759e-06
2.36411e-06
2.36146e-06
2.35603e-06
2.36271e-06
2.36283e-06
2.32776e-06
2.3278e-06
2.3277e-06
2.3243e-06
2.32373e-06
2.3238e-06
2.32471e-06
2.33219e-06
2.33231e-06
2.32716e-06
2.322e-06
2.31817e-06
2.31817e-06
2.31817e-06
2.31816e-06
2.33897e-06
2.32778e-06
2.32423e-06
2.31818e-06
2.31817e-06
2.31817e-06
2.31817e-06
2.31817e-06
2.31817e-06
2.34326e-06
2.33249e-06
2.32777e-06
2.32373e-06
2.31816e-06
2.31816e-06
2.31816e-06
2.31817e-06
2.31817e-06
2.31816e-06
2.34005e-06
2.32982e-06
2.32777e-06
2.32389e-06
2.31815e-06
2.31815e-06
2.31816e-06
2.31817e-06
2.31817e-06
2.31817e-06
2.33803e-06
2.32468e-06
2.32466e-06
2.31813e-06
2.31814e-06
2.31816e-06
2.31817e-06
2.31819e-06
2.31818e-06
2.34212e-06
2.33033e-06
2.33221e-06
2.33897e-06
2.31813e-06
2.31815e-06
2.31817e-06
2.3182e-06
2.34925e-06
2.33584e-06
2.33055e-06
2.33214e-06
2.32768e-06
2.34329e-06
2.34007e-06
2.33794e-06
2.34247e-06
2.33674e-06
2.3441e-06
2.33224e-06
2.32965e-06
2.32441e-06
2.33063e-06
2.33097e-06
2.29611e-06
2.29651e-06
2.29587e-06
2.29244e-06
2.29184e-06
2.29205e-06
2.29293e-06
2.30035e-06
2.30044e-06
2.29538e-06
2.29021e-06
2.28636e-06
2.28635e-06
2.28634e-06
2.28634e-06
2.30707e-06
2.29592e-06
2.29242e-06
2.28637e-06
2.28636e-06
2.28635e-06
2.28634e-06
2.28632e-06
2.28631e-06
2.31144e-06
2.30065e-06
2.29599e-06
2.29184e-06
2.28639e-06
2.28637e-06
2.28635e-06
2.28633e-06
2.28631e-06
2.2863e-06
2.3082e-06
2.29796e-06
2.296e-06
2.29216e-06
2.2864e-06
2.28638e-06
2.28635e-06
2.28632e-06
2.2863e-06
2.28628e-06
2.30614e-06
2.29279e-06
2.29291e-06
2.28644e-06
2.28639e-06
2.28634e-06
2.2863e-06
2.28628e-06
2.28625e-06
2.31019e-06
2.29842e-06
2.30049e-06
2.30725e-06
2.2864e-06
2.28633e-06
2.28628e-06
2.28629e-06
2.3173e-06
2.30388e-06
2.29861e-06
2.30051e-06
2.29609e-06
2.31184e-06
2.30856e-06
2.30603e-06
2.31044e-06
2.3047e-06
2.31211e-06
2.301e-06
2.29818e-06
2.29263e-06
2.29849e-06
2.29888e-06
2.2643e-06
2.2647e-06
2.26404e-06
2.26066e-06
2.26017e-06
2.2603e-06
2.26112e-06
2.26856e-06
2.26863e-06
2.26355e-06
2.25838e-06
2.25453e-06
2.25453e-06
2.25452e-06
2.25451e-06
2.27526e-06
2.2641e-06
2.26062e-06
2.25456e-06
2.25454e-06
2.25453e-06
2.25451e-06
2.2545e-06
2.25448e-06
2.27961e-06
2.26881e-06
2.26413e-06
2.26022e-06
2.25457e-06
2.25455e-06
2.25453e-06
2.25451e-06
2.25449e-06
2.25447e-06
2.27637e-06
2.26612e-06
2.26396e-06
2.2603e-06
2.25459e-06
2.25456e-06
2.25454e-06
2.25451e-06
2.25448e-06
2.25445e-06
2.2743e-06
2.26089e-06
2.26125e-06
2.25463e-06
2.25458e-06
2.25455e-06
2.2545e-06
2.25447e-06
2.25443e-06
2.27832e-06
2.26654e-06
2.2688e-06
2.2756e-06
2.25457e-06
2.25454e-06
2.25448e-06
2.25446e-06
2.28538e-06
2.27195e-06
2.26672e-06
2.26878e-06
2.26431e-06
2.27994e-06
2.27649e-06
2.27435e-06
2.27851e-06
2.27267e-06
2.28015e-06
2.26909e-06
2.26642e-06
2.26105e-06
2.26657e-06
2.26683e-06
2.23223e-06
2.23201e-06
2.2322e-06
2.2288e-06
2.22837e-06
2.22838e-06
2.22932e-06
2.23676e-06
2.23683e-06
2.23174e-06
2.22657e-06
2.22273e-06
2.22271e-06
2.22269e-06
2.22268e-06
2.2435e-06
2.2323e-06
2.22878e-06
2.2227e-06
2.22272e-06
2.2227e-06
2.22269e-06
2.22267e-06
2.22266e-06
2.24779e-06
2.23699e-06
2.23239e-06
2.22819e-06
2.22273e-06
2.22272e-06
2.2227e-06
2.22268e-06
2.22266e-06
2.22265e-06
2.24454e-06
2.2343e-06
2.23236e-06
2.22858e-06
2.22274e-06
2.22272e-06
2.2227e-06
2.22267e-06
2.22265e-06
2.22263e-06
2.24251e-06
2.22912e-06
2.22937e-06
2.22276e-06
2.22272e-06
2.22269e-06
2.22266e-06
2.22263e-06
2.2226e-06
2.24656e-06
2.23475e-06
2.23692e-06
2.24366e-06
2.22273e-06
2.22268e-06
2.22264e-06
2.22261e-06
2.25363e-06
2.2402e-06
2.23493e-06
2.23691e-06
2.23245e-06
2.24808e-06
2.24466e-06
2.24246e-06
2.24668e-06
2.24092e-06
2.2484e-06
2.23736e-06
2.23458e-06
2.22895e-06
2.23459e-06
2.23507e-06
2.20056e-06
2.2005e-06
2.20045e-06
2.19703e-06
2.19649e-06
2.19665e-06
2.19741e-06
2.20491e-06
2.20502e-06
2.19996e-06
2.1948e-06
2.19091e-06
2.1909e-06
2.19089e-06
2.19088e-06
2.21169e-06
2.20049e-06
2.19704e-06
2.19093e-06
2.19091e-06
2.19089e-06
2.19088e-06
2.19087e-06
2.19086e-06
2.21599e-06
2.20519e-06
2.2005e-06
2.19655e-06
2.19091e-06
2.1909e-06
2.19088e-06
2.19087e-06
2.19087e-06
2.19086e-06
2.21274e-06
2.2025e-06
2.20046e-06
2.19652e-06
2.19089e-06
2.19088e-06
2.19087e-06
2.19087e-06
2.19086e-06
2.19085e-06
2.2107e-06
2.19731e-06
2.19745e-06
2.19088e-06
2.19087e-06
2.19086e-06
2.19086e-06
2.19086e-06
2.19083e-06
2.21474e-06
2.20294e-06
2.20501e-06
2.21163e-06
2.19084e-06
2.19084e-06
2.19085e-06
2.19087e-06
2.22188e-06
2.20838e-06
2.20311e-06
2.20496e-06
2.20048e-06
2.21604e-06
2.21281e-06
2.21066e-06
2.21496e-06
2.20919e-06
2.21656e-06
2.20517e-06
2.20253e-06
2.19733e-06
2.20311e-06
2.20349e-06
2.16875e-06
2.16873e-06
2.16872e-06
2.16525e-06
2.16461e-06
2.1649e-06
2.16567e-06
2.17314e-06
2.17324e-06
2.16819e-06
2.16305e-06
2.15916e-06
2.15913e-06
2.15911e-06
2.1591e-06
2.1799e-06
2.16871e-06
2.16548e-06
2.15914e-06
2.15912e-06
2.15911e-06
2.15909e-06
2.15908e-06
2.15907e-06
2.1842e-06
2.1734e-06
2.16891e-06
2.16443e-06
2.1591e-06
2.15909e-06
2.15908e-06
2.15907e-06
2.15907e-06
2.15906e-06
2.18095e-06
2.17071e-06
2.16921e-06
2.16455e-06
2.15906e-06
2.15904e-06
2.15905e-06
2.15905e-06
2.15905e-06
2.15905e-06
2.17891e-06
2.16553e-06
2.16541e-06
2.15902e-06
2.159e-06
2.15902e-06
2.15903e-06
2.15904e-06
2.15904e-06
2.18296e-06
2.17117e-06
2.17302e-06
2.17977e-06
2.15895e-06
2.15899e-06
2.15901e-06
2.15902e-06
2.19012e-06
2.17668e-06
2.17137e-06
2.173e-06
2.16849e-06
2.18408e-06
2.18086e-06
2.1789e-06
2.18314e-06
2.1775e-06
2.18485e-06
2.1732e-06
2.17058e-06
2.16551e-06
2.17133e-06
2.17174e-06
2.13695e-06
2.13695e-06
2.13691e-06
2.13346e-06
2.13282e-06
2.13312e-06
2.13389e-06
2.14135e-06
2.14146e-06
2.13638e-06
2.13127e-06
2.12738e-06
2.12734e-06
2.12732e-06
2.12731e-06
2.14812e-06
2.13693e-06
2.1336e-06
2.12734e-06
2.12734e-06
2.12732e-06
2.1273e-06
2.12729e-06
2.12729e-06
2.15243e-06
2.14162e-06
2.13758e-06
2.13291e-06
2.12731e-06
2.1273e-06
2.12729e-06
2.12728e-06
2.12728e-06
2.12728e-06
2.14917e-06
2.13892e-06
2.13759e-06
2.13279e-06
2.12726e-06
2.12724e-06
2.12725e-06
2.12725e-06
2.12726e-06
2.12726e-06
2.1471e-06
2.13372e-06
2.13342e-06
2.12723e-06
2.12721e-06
2.12721e-06
2.12723e-06
2.12724e-06
2.12725e-06
2.15117e-06
2.13938e-06
2.14103e-06
2.14783e-06
2.12716e-06
2.12717e-06
2.1272e-06
2.12723e-06
2.15833e-06
2.14489e-06
2.13958e-06
2.14103e-06
2.13661e-06
2.15225e-06
2.1491e-06
2.14708e-06
2.15137e-06
2.14571e-06
2.15306e-06
2.14135e-06
2.13885e-06
2.13366e-06
2.1395e-06
2.13994e-06
2.10517e-06
2.10513e-06
2.10504e-06
2.10166e-06
2.101e-06
2.1013e-06
2.10207e-06
2.10954e-06
2.10964e-06
2.10462e-06
2.0994e-06
2.09554e-06
2.09552e-06
2.0955e-06
2.09549e-06
2.11631e-06
2.10512e-06
2.10171e-06
2.09552e-06
2.09552e-06
2.09549e-06
2.09548e-06
2.09547e-06
2.09547e-06
2.12063e-06
2.10982e-06
2.10563e-06
2.10095e-06
2.09549e-06
2.09548e-06
2.09547e-06
2.09546e-06
2.09546e-06
2.09546e-06
2.11737e-06
2.10714e-06
2.10479e-06
2.10087e-06
2.09541e-06
2.09543e-06
2.09544e-06
2.09544e-06
2.09544e-06
2.09544e-06
2.11532e-06
2.10196e-06
2.1016e-06
2.09536e-06
2.09539e-06
2.09541e-06
2.09542e-06
2.09542e-06
2.09543e-06
2.11936e-06
2.10759e-06
2.10921e-06
2.11603e-06
2.09536e-06
2.09539e-06
2.0954e-06
2.09541e-06
2.12649e-06
2.11308e-06
2.1078e-06
2.10938e-06
2.10491e-06
2.12052e-06
2.1173e-06
2.11532e-06
2.11959e-06
2.11391e-06
2.12126e-06
2.10956e-06
2.10698e-06
2.10196e-06
2.10769e-06
2.10812e-06
2.07328e-06
2.07328e-06
2.07314e-06
2.06977e-06
2.06914e-06
2.06945e-06
2.07023e-06
2.07771e-06
2.07781e-06
2.07259e-06
2.0675e-06
2.06367e-06
2.06366e-06
2.06365e-06
2.06365e-06
2.08448e-06
2.07329e-06
2.06974e-06
2.06366e-06
2.06366e-06
2.06365e-06
2.06365e-06
2.06364e-06
2.06364e-06
2.08879e-06
2.07799e-06
2.07337e-06
2.06928e-06
2.06364e-06
2.06364e-06
2.06364e-06
2.06364e-06
2.06363e-06
2.06363e-06
2.08552e-06
2.0753e-06
2.0733e-06
2.06918e-06
2.06362e-06
2.06363e-06
2.06363e-06
2.06363e-06
2.06363e-06
2.06363e-06
2.08349e-06
2.07011e-06
2.07008e-06
2.06361e-06
2.06361e-06
2.06362e-06
2.06362e-06
2.06362e-06
2.06362e-06
2.08756e-06
2.07577e-06
2.07762e-06
2.08433e-06
2.06359e-06
2.06361e-06
2.06361e-06
2.0636e-06
2.09467e-06
2.08125e-06
2.07596e-06
2.07768e-06
2.07316e-06
2.08876e-06
2.08554e-06
2.0835e-06
2.08779e-06
2.0821e-06
2.08944e-06
2.0778e-06
2.07521e-06
2.07013e-06
2.07592e-06
2.07631e-06
2.04144e-06
2.04144e-06
2.04127e-06
2.03791e-06
2.03729e-06
2.03761e-06
2.0384e-06
2.04588e-06
2.04599e-06
2.04069e-06
2.03565e-06
2.03183e-06
2.03183e-06
2.03183e-06
2.03183e-06
2.05266e-06
2.04147e-06
2.03782e-06
2.03182e-06
2.03182e-06
2.03183e-06
2.03183e-06
2.03183e-06
2.03183e-06
2.05697e-06
2.04617e-06
2.04145e-06
2.03724e-06
2.03181e-06
2.03182e-06
2.03182e-06
2.03182e-06
2.03182e-06
2.03183e-06
2.05372e-06
2.04346e-06
2.0416e-06
2.0375e-06
2.03181e-06
2.03181e-06
2.03182e-06
2.03182e-06
2.03182e-06
2.03182e-06
2.05169e-06
2.03831e-06
2.03837e-06
2.03182e-06
2.03181e-06
2.03181e-06
2.03181e-06
2.03182e-06
2.03182e-06
2.05574e-06
2.04396e-06
2.04589e-06
2.05253e-06
2.0318e-06
2.0318e-06
2.03181e-06
2.03181e-06
2.06287e-06
2.04945e-06
2.04416e-06
2.04593e-06
2.04137e-06
2.05691e-06