/*--------------------------------*- C++ -*----------------------------------*\
| =========                 |                                                 |
| \\      /  F ield         | OpenFOAM: The Open Source CFD Toolbox           |
|  \\    /   O peration     | Version:  v2012                                 |
|   \\  /    A nd           | Website:  www.openfoam.com                      |
|    \\/     M anipulation  |                                                 |
\*---------------------------------------------------------------------------*/
FoamFile
{
    version     2.0;
    format      ascii;
    class       volScalarField;
    location    "3.5";
    object      p;
}
// * * * * * * * * * * * * * * * * * * * * * * * * * * * * * * * * * * * * * //

dimensions      [0 2 -2 0 0 0 0];


internalField   nonuniform List<scalar> 
244288
(
1.6791e-06
1.6794e-06
1.6794e-06
1.67919e-06
1.67908e-06
1.67922e-06
1.67941e-06
1.6794e-06
1.67937e-06
1.67917e-06
1.67889e-06
1.67877e-06
1.67892e-06
1.67921e-06
1.67937e-06
1.6794e-06
1.67917e-06
1.67874e-06
1.67835e-06
1.6782e-06
1.67838e-06
1.6788e-06
1.67921e-06
1.67941e-06
1.67919e-06
1.67889e-06
1.67835e-06
1.67789e-06
1.67773e-06
1.67793e-06
1.67841e-06
1.67894e-06
1.6792e-06
1.6791e-06
1.67908e-06
1.67877e-06
1.6782e-06
1.67773e-06
1.67757e-06
1.67778e-06
1.67828e-06
1.67883e-06
1.67908e-06
1.67922e-06
1.67892e-06
1.67838e-06
1.67793e-06
1.67778e-06
1.67798e-06
1.67845e-06
1.67897e-06
1.67923e-06
1.67941e-06
1.67921e-06
1.6788e-06
1.67841e-06
1.67828e-06
1.67845e-06
1.67885e-06
1.67924e-06
1.67943e-06
1.67937e-06
1.67921e-06
1.67894e-06
1.67883e-06
1.67897e-06
1.67924e-06
1.67937e-06
1.67941e-06
1.6792e-06
1.67908e-06
1.67923e-06
1.67943e-06
1.64959e-06
1.64908e-06
1.64869e-06
1.64726e-06
1.64718e-06
1.64718e-06
1.64718e-06
1.64857e-06
1.6487e-06
1.64869e-06
1.64686e-06
1.6444e-06
1.64441e-06
1.64441e-06
1.6444e-06
1.64663e-06
1.64719e-06
1.64726e-06
1.64439e-06
1.64447e-06
1.64451e-06
1.64451e-06
1.64447e-06
1.6444e-06
1.6469e-06
1.64887e-06
1.64959e-06
1.64718e-06
1.64441e-06
1.64451e-06
1.64457e-06
1.64457e-06
1.64451e-06
1.64441e-06
1.64678e-06
1.64873e-06
1.64907e-06
1.64718e-06
1.64441e-06
1.64451e-06
1.64457e-06
1.64457e-06
1.64451e-06
1.64441e-06
1.64677e-06
1.64745e-06
1.64718e-06
1.6444e-06
1.64447e-06
1.64451e-06
1.64451e-06
1.64447e-06
1.6444e-06
1.64681e-06
1.64881e-06
1.64857e-06
1.64663e-06
1.6444e-06
1.64441e-06
1.64441e-06
1.6444e-06
1.64629e-06
1.64708e-06
1.64891e-06
1.6487e-06
1.6472e-06
1.6469e-06
1.64678e-06
1.64677e-06
1.64681e-06
1.64708e-06
1.64848e-06
1.64887e-06
1.64873e-06
1.64745e-06
1.64882e-06
1.64891e-06
1.63194e-06
1.63177e-06
1.63169e-06
1.63001e-06
1.6299e-06
1.62988e-06
1.62994e-06
1.6315e-06
1.63176e-06
1.63169e-06
1.62963e-06
1.62668e-06
1.62669e-06
1.62669e-06
1.62668e-06
1.62943e-06
1.63008e-06
1.63001e-06
1.62668e-06
1.62669e-06
1.6267e-06
1.6267e-06
1.62669e-06
1.62668e-06
1.62977e-06
1.63172e-06
1.63193e-06
1.6299e-06
1.62669e-06
1.6267e-06
1.62671e-06
1.62671e-06
1.6267e-06
1.62669e-06
1.62958e-06
1.63145e-06
1.63177e-06
1.62989e-06
1.62669e-06
1.6267e-06
1.62671e-06
1.62671e-06
1.6267e-06
1.62669e-06
1.62954e-06
1.63024e-06
1.62994e-06
1.62668e-06
1.62669e-06
1.6267e-06
1.6267e-06
1.62669e-06
1.62668e-06
1.62965e-06
1.63157e-06
1.6315e-06
1.62943e-06
1.62668e-06
1.62669e-06
1.62669e-06
1.62668e-06
1.6291e-06
1.62995e-06
1.63179e-06
1.63176e-06
1.63008e-06
1.62977e-06
1.62958e-06
1.62954e-06
1.62965e-06
1.62996e-06
1.63143e-06
1.63172e-06
1.63145e-06
1.63025e-06
1.63157e-06
1.63179e-06
1.61461e-06
1.61444e-06
1.61439e-06
1.61267e-06
1.61256e-06
1.61255e-06
1.61261e-06
1.61419e-06
1.61447e-06
1.61439e-06
1.61228e-06
1.60924e-06
1.60924e-06
1.60924e-06
1.60924e-06
1.61211e-06
1.61278e-06
1.61267e-06
1.60924e-06
1.60924e-06
1.60924e-06
1.60924e-06
1.60924e-06
1.60924e-06
1.6125e-06
1.61441e-06
1.61461e-06
1.61256e-06
1.60924e-06
1.60924e-06
1.60924e-06
1.60924e-06
1.60924e-06
1.60924e-06
1.61232e-06
1.61413e-06
1.61444e-06
1.61255e-06
1.60924e-06
1.60924e-06
1.60924e-06
1.60924e-06
1.60924e-06
1.60924e-06
1.61228e-06
1.61291e-06
1.61261e-06
1.60924e-06
1.60924e-06
1.60924e-06
1.60924e-06
1.60924e-06
1.60924e-06
1.61239e-06
1.61425e-06
1.61419e-06
1.61211e-06
1.60924e-06
1.60924e-06
1.60924e-06
1.60924e-06
1.61183e-06
1.61266e-06
1.61449e-06
1.61447e-06
1.61278e-06
1.6125e-06
1.61232e-06
1.61228e-06
1.6124e-06
1.61267e-06
1.61413e-06
1.61441e-06
1.61413e-06
1.61292e-06
1.61425e-06
1.61449e-06
1.59725e-06
1.59708e-06
1.59703e-06
1.5953e-06
1.59519e-06
1.59518e-06
1.59524e-06
1.59683e-06
1.5971e-06
1.59703e-06
1.59489e-06
1.59183e-06
1.59183e-06
1.59183e-06
1.59183e-06
1.59473e-06
1.59541e-06
1.5953e-06
1.59183e-06
1.59183e-06
1.59183e-06
1.59183e-06
1.59183e-06
1.59183e-06
1.59514e-06
1.59705e-06
1.59725e-06
1.59519e-06
1.59183e-06
1.59183e-06
1.59183e-06
1.59183e-06
1.59183e-06
1.59183e-06
1.59498e-06
1.59677e-06
1.59708e-06
1.59518e-06
1.59183e-06
1.59183e-06
1.59183e-06
1.59183e-06
1.59183e-06
1.59183e-06
1.59494e-06
1.59555e-06
1.59524e-06
1.59183e-06
1.59183e-06
1.59183e-06
1.59183e-06
1.59183e-06
1.59183e-06
1.59505e-06
1.59689e-06
1.59683e-06
1.59473e-06
1.59183e-06
1.59183e-06
1.59183e-06
1.59183e-06
1.59448e-06
1.5953e-06
1.59713e-06
1.5971e-06
1.59541e-06
1.59514e-06
1.59499e-06
1.59494e-06
1.59505e-06
1.59531e-06
1.59676e-06
1.59705e-06
1.59677e-06
1.59555e-06
1.59689e-06
1.59713e-06
1.57987e-06
1.57969e-06
1.57964e-06
1.57791e-06
1.5778e-06
1.57779e-06
1.57785e-06
1.57945e-06
1.57972e-06
1.57965e-06
1.5775e-06
1.57443e-06
1.57443e-06
1.57443e-06
1.57443e-06
1.57735e-06
1.57803e-06
1.57791e-06
1.57443e-06
1.57443e-06
1.57443e-06
1.57443e-06
1.57443e-06
1.57443e-06
1.57776e-06
1.57967e-06
1.57987e-06
1.5778e-06
1.57443e-06
1.57443e-06
1.57443e-06
1.57443e-06
1.57443e-06
1.57443e-06
1.57761e-06
1.57939e-06
1.5797e-06
1.57779e-06
1.57443e-06
1.57443e-06
1.57443e-06
1.57443e-06
1.57443e-06
1.57443e-06
1.57756e-06
1.57817e-06
1.57785e-06
1.57443e-06
1.57443e-06
1.57443e-06
1.57443e-06
1.57443e-06
1.57443e-06
1.57767e-06
1.57951e-06
1.57945e-06
1.57735e-06
1.57443e-06
1.57443e-06
1.57443e-06
1.57443e-06
1.5771e-06
1.57792e-06
1.57974e-06
1.57972e-06
1.57803e-06
1.57776e-06
1.57761e-06
1.57757e-06
1.57767e-06
1.57792e-06
1.57938e-06
1.57967e-06
1.57939e-06
1.57817e-06
1.57951e-06
1.57975e-06
1.56248e-06
1.5623e-06
1.56225e-06
1.56053e-06
1.56041e-06
1.5604e-06
1.56046e-06
1.56206e-06
1.56233e-06
1.56226e-06
1.56011e-06
1.55704e-06
1.55704e-06
1.55704e-06
1.55704e-06
1.55995e-06
1.56064e-06
1.56052e-06
1.55704e-06
1.55704e-06
1.55704e-06
1.55704e-06
1.55704e-06
1.55704e-06
1.56037e-06
1.56228e-06
1.56248e-06
1.56041e-06
1.55704e-06
1.55704e-06
1.55704e-06
1.55704e-06
1.55704e-06
1.55704e-06
1.56022e-06
1.562e-06
1.56231e-06
1.5604e-06
1.55704e-06
1.55704e-06
1.55704e-06
1.55704e-06
1.55704e-06
1.55704e-06
1.56018e-06
1.56078e-06
1.56046e-06
1.55704e-06
1.55704e-06
1.55704e-06
1.55704e-06
1.55704e-06
1.55704e-06
1.56028e-06
1.56212e-06
1.56206e-06
1.55996e-06
1.55704e-06
1.55704e-06
1.55704e-06
1.55704e-06
1.55971e-06
1.56053e-06
1.56236e-06
1.56233e-06
1.56064e-06
1.56037e-06
1.56022e-06
1.56018e-06
1.56028e-06
1.56053e-06
1.56199e-06
1.56228e-06
1.562e-06
1.56078e-06
1.56212e-06
1.56236e-06
1.54509e-06
1.54491e-06
1.54486e-06
1.54314e-06
1.54302e-06
1.54301e-06
1.54307e-06
1.54467e-06
1.54494e-06
1.54487e-06
1.54272e-06
1.53965e-06
1.53965e-06
1.53965e-06
1.53965e-06
1.54256e-06
1.54325e-06
1.54313e-06
1.53965e-06
1.53965e-06
1.53965e-06
1.53965e-06
1.53965e-06
1.53965e-06
1.54298e-06
1.54489e-06
1.54509e-06
1.54302e-06
1.53965e-06
1.53965e-06
1.53965e-06
1.53965e-06
1.53965e-06
1.53965e-06
1.54283e-06
1.54461e-06
1.54492e-06
1.54301e-06
1.53965e-06
1.53965e-06
1.53965e-06
1.53965e-06
1.53965e-06
1.53965e-06
1.54279e-06
1.54339e-06
1.54307e-06
1.53965e-06
1.53965e-06
1.53965e-06
1.53965e-06
1.53965e-06
1.53965e-06
1.54289e-06
1.54473e-06
1.54467e-06
1.54256e-06
1.53965e-06
1.53965e-06
1.53965e-06
1.53965e-06
1.54232e-06
1.54314e-06
1.54497e-06
1.54494e-06
1.54325e-06
1.54298e-06
1.54283e-06
1.54279e-06
1.54289e-06
1.54314e-06
1.5446e-06
1.54489e-06
1.54461e-06
1.54339e-06
1.54473e-06
1.54497e-06
1.5277e-06
1.52752e-06
1.52747e-06
1.52574e-06
1.52563e-06
1.52562e-06
1.52568e-06
1.52728e-06
1.52755e-06
1.52748e-06
1.52533e-06
1.52226e-06
1.52226e-06
1.52226e-06
1.52226e-06
1.52517e-06
1.52586e-06
1.52574e-06
1.52226e-06
1.52226e-06
1.52226e-06
1.52226e-06
1.52226e-06
1.52226e-06
1.52559e-06
1.5275e-06
1.5277e-06
1.52563e-06
1.52226e-06
1.52226e-06
1.52226e-06
1.52226e-06
1.52226e-06
1.52226e-06
1.52544e-06
1.52722e-06
1.52753e-06
1.52562e-06
1.52226e-06
1.52226e-06
1.52226e-06
1.52226e-06
1.52226e-06
1.52226e-06
1.5254e-06
1.526e-06
1.52568e-06
1.52226e-06
1.52226e-06
1.52226e-06
1.52226e-06
1.52226e-06
1.52226e-06
1.5255e-06
1.52734e-06
1.52728e-06
1.52517e-06
1.52226e-06
1.52226e-06
1.52226e-06
1.52226e-06
1.52493e-06
1.52575e-06
1.52757e-06
1.52755e-06
1.52586e-06
1.52559e-06
1.52544e-06
1.5254e-06
1.5255e-06
1.52575e-06
1.52721e-06
1.5275e-06
1.52721e-06
1.526e-06
1.52734e-06
1.52758e-06
1.51031e-06
1.51013e-06
1.51008e-06
1.50835e-06
1.50824e-06
1.50823e-06
1.50829e-06
1.50989e-06
1.51016e-06
1.51009e-06
1.50794e-06
1.50487e-06
1.50486e-06
1.50486e-06
1.50486e-06
1.50778e-06
1.50847e-06
1.50835e-06
1.50487e-06
1.50487e-06
1.50486e-06
1.50486e-06
1.50486e-06
1.50486e-06
1.5082e-06
1.51011e-06
1.51031e-06
1.50825e-06
1.50486e-06
1.50486e-06
1.50486e-06
1.50486e-06
1.50486e-06
1.50486e-06
1.50805e-06
1.50982e-06
1.51013e-06
1.50823e-06
1.50486e-06
1.50486e-06
1.50486e-06
1.50486e-06
1.50486e-06
1.50486e-06
1.50801e-06
1.50861e-06
1.50829e-06
1.50486e-06
1.50486e-06
1.50486e-06
1.50486e-06
1.50486e-06
1.50486e-06
1.50811e-06
1.50995e-06
1.50989e-06
1.50778e-06
1.50486e-06
1.50486e-06
1.50486e-06
1.50486e-06
1.50754e-06
1.50836e-06
1.51018e-06
1.51016e-06
1.50847e-06
1.5082e-06
1.50805e-06
1.50801e-06
1.50811e-06
1.50836e-06
1.50982e-06
1.51011e-06
1.50982e-06
1.50861e-06
1.50995e-06
1.51018e-06
1.49292e-06
1.49274e-06
1.49269e-06
1.49096e-06
1.49085e-06
1.49084e-06
1.4909e-06
1.4925e-06
1.49277e-06
1.49269e-06
1.49055e-06
1.48747e-06
1.48747e-06
1.48747e-06
1.48747e-06
1.49039e-06
1.49108e-06
1.49096e-06
1.48747e-06
1.48747e-06
1.48747e-06
1.48747e-06
1.48747e-06
1.48747e-06
1.49081e-06
1.49272e-06
1.49292e-06
1.49085e-06
1.48747e-06
1.48747e-06
1.48747e-06
1.48747e-06
1.48747e-06
1.48747e-06
1.49066e-06
1.49243e-06
1.49275e-06
1.49084e-06
1.48747e-06
1.48747e-06
1.48747e-06
1.48747e-06
1.48747e-06
1.48747e-06
1.49061e-06
1.49122e-06
1.4909e-06
1.48747e-06
1.48747e-06
1.48747e-06
1.48747e-06
1.48747e-06
1.48747e-06
1.49072e-06
1.49255e-06
1.4925e-06
1.49039e-06
1.48747e-06
1.48747e-06
1.48747e-06
1.48747e-06
1.49015e-06
1.49097e-06
1.49279e-06
1.49276e-06
1.49108e-06
1.49081e-06
1.49066e-06
1.49061e-06
1.49072e-06
1.49097e-06
1.49242e-06
1.49272e-06
1.49243e-06
1.49122e-06
1.49255e-06
1.49279e-06
1.47553e-06
1.47535e-06
1.4753e-06
1.47357e-06
1.47346e-06
1.47345e-06
1.47351e-06
1.4751e-06
1.47537e-06
1.4753e-06
1.47316e-06
1.47008e-06
1.47008e-06
1.47008e-06
1.47008e-06
1.473e-06
1.47369e-06
1.47357e-06
1.47008e-06
1.47008e-06
1.47008e-06
1.47008e-06
1.47008e-06
1.47008e-06
1.47342e-06
1.47533e-06
1.47553e-06
1.47346e-06
1.47008e-06
1.47008e-06
1.47008e-06
1.47008e-06
1.47008e-06
1.47008e-06
1.47327e-06
1.47504e-06
1.47535e-06
1.47345e-06
1.47008e-06
1.47008e-06
1.47008e-06
1.47008e-06
1.47008e-06
1.47008e-06
1.47322e-06
1.47383e-06
1.47351e-06
1.47008e-06
1.47008e-06
1.47008e-06
1.47008e-06
1.47008e-06
1.47008e-06
1.47333e-06
1.47516e-06
1.4751e-06
1.473e-06
1.47008e-06
1.47008e-06
1.47008e-06
1.47008e-06
1.47276e-06
1.47357e-06
1.4754e-06
1.47537e-06
1.47369e-06
1.47342e-06
1.47327e-06
1.47322e-06
1.47333e-06
1.47358e-06
1.47503e-06
1.47533e-06
1.47504e-06
1.47383e-06
1.47516e-06
1.4754e-06
1.45813e-06
1.45796e-06
1.45791e-06
1.45618e-06
1.45607e-06
1.45606e-06
1.45612e-06
1.45771e-06
1.45798e-06
1.45791e-06
1.45576e-06
1.45269e-06
1.45269e-06
1.45269e-06
1.45269e-06
1.45561e-06
1.45629e-06
1.45618e-06
1.45269e-06
1.45269e-06
1.45269e-06
1.45269e-06
1.45269e-06
1.45269e-06
1.45603e-06
1.45794e-06
1.45814e-06
1.45607e-06
1.45269e-06
1.45269e-06
1.45269e-06
1.45269e-06
1.45269e-06
1.45269e-06
1.45588e-06
1.45765e-06
1.45796e-06
1.45606e-06
1.45269e-06
1.45269e-06
1.45269e-06
1.45269e-06
1.45269e-06
1.45269e-06
1.45583e-06
1.45644e-06
1.45612e-06
1.45269e-06
1.45269e-06
1.45269e-06
1.45269e-06
1.45269e-06
1.45269e-06
1.45594e-06
1.45777e-06
1.45771e-06
1.45561e-06
1.45269e-06
1.45269e-06
1.45269e-06
1.45269e-06
1.45537e-06
1.45618e-06
1.45801e-06
1.45798e-06
1.45629e-06
1.45603e-06
1.45588e-06
1.45583e-06
1.45594e-06
1.45619e-06
1.45764e-06
1.45794e-06
1.45765e-06
1.45644e-06
1.45777e-06
1.45801e-06
1.44074e-06
1.44057e-06
1.44052e-06
1.43879e-06
1.43868e-06
1.43866e-06
1.43872e-06
1.44032e-06
1.44059e-06
1.44052e-06
1.43837e-06
1.4353e-06
1.4353e-06
1.4353e-06
1.4353e-06
1.43822e-06
1.4389e-06
1.43879e-06
1.4353e-06
1.4353e-06
1.4353e-06
1.4353e-06
1.4353e-06
1.4353e-06
1.43863e-06
1.44054e-06
1.44075e-06
1.43867e-06
1.4353e-06
1.4353e-06
1.4353e-06
1.4353e-06
1.4353e-06
1.4353e-06
1.43848e-06
1.44026e-06
1.44057e-06
1.43866e-06
1.4353e-06
1.4353e-06
1.4353e-06
1.4353e-06
1.4353e-06
1.4353e-06
1.43844e-06
1.43904e-06
1.43873e-06
1.4353e-06
1.4353e-06
1.4353e-06
1.4353e-06
1.4353e-06
1.4353e-06
1.43854e-06
1.44038e-06
1.44032e-06
1.43822e-06
1.4353e-06
1.4353e-06
1.4353e-06
1.4353e-06
1.43798e-06
1.43879e-06
1.44062e-06
1.44059e-06
1.4389e-06
1.43864e-06
1.43849e-06
1.43844e-06
1.43855e-06
1.4388e-06
1.44025e-06
1.44055e-06
1.44026e-06
1.43904e-06
1.44038e-06
1.44062e-06
1.42335e-06
1.42317e-06
1.42312e-06
1.4214e-06
1.42128e-06
1.42127e-06
1.42133e-06
1.42293e-06
1.4232e-06
1.42313e-06
1.42098e-06
1.41791e-06
1.41791e-06
1.41791e-06
1.41791e-06
1.42082e-06
1.42151e-06
1.4214e-06
1.41791e-06
1.41791e-06
1.41791e-06
1.41791e-06
1.41791e-06
1.41791e-06
1.42124e-06
1.42315e-06
1.42335e-06
1.42128e-06
1.41791e-06
1.41791e-06
1.41791e-06
1.41791e-06
1.41791e-06
1.41791e-06
1.42109e-06
1.42287e-06
1.42318e-06
1.42127e-06
1.41791e-06
1.41791e-06
1.41791e-06
1.41791e-06
1.41791e-06
1.41791e-06
1.42105e-06
1.42165e-06
1.42133e-06
1.41791e-06
1.41791e-06
1.41791e-06
1.41791e-06
1.41791e-06
1.41791e-06
1.42115e-06
1.42299e-06
1.42293e-06
1.42083e-06
1.41791e-06
1.41791e-06
1.41791e-06
1.41791e-06
1.42059e-06
1.4214e-06
1.42323e-06
1.4232e-06
1.42151e-06
1.42124e-06
1.42109e-06
1.42105e-06
1.42115e-06
1.4214e-06
1.42286e-06
1.42315e-06
1.42287e-06
1.42165e-06
1.42299e-06
1.42323e-06
1.40596e-06
1.40578e-06
1.40573e-06
1.404e-06
1.40389e-06
1.40388e-06
1.40394e-06
1.40554e-06
1.40581e-06
1.40574e-06
1.40359e-06
1.40052e-06
1.40052e-06
1.40052e-06
1.40052e-06
1.40343e-06
1.40412e-06
1.404e-06
1.40052e-06
1.40052e-06
1.40052e-06
1.40052e-06
1.40052e-06
1.40052e-06
1.40385e-06
1.40576e-06
1.40596e-06
1.40389e-06
1.40052e-06
1.40052e-06
1.40052e-06
1.40052e-06
1.40052e-06
1.40052e-06
1.4037e-06
1.40548e-06
1.40578e-06
1.40388e-06
1.40052e-06
1.40052e-06
1.40052e-06
1.40052e-06
1.40052e-06
1.40052e-06
1.40366e-06
1.40426e-06
1.40394e-06
1.40052e-06
1.40052e-06
1.40052e-06
1.40052e-06
1.40052e-06
1.40052e-06
1.40376e-06
1.4056e-06
1.40554e-06
1.40343e-06
1.40052e-06
1.40052e-06
1.40052e-06
1.40052e-06
1.40319e-06
1.40401e-06
1.40583e-06
1.40581e-06
1.40412e-06
1.40385e-06
1.4037e-06
1.40366e-06
1.40376e-06
1.40401e-06
1.40547e-06
1.40576e-06
1.40548e-06
1.40426e-06
1.4056e-06
1.40584e-06
1.38857e-06
1.38839e-06
1.38834e-06
1.38661e-06
1.3865e-06
1.38649e-06
1.38655e-06
1.38815e-06
1.38842e-06
1.38834e-06
1.3862e-06
1.38312e-06
1.38312e-06
1.38312e-06
1.38312e-06
1.38604e-06
1.38673e-06
1.38661e-06
1.38312e-06
1.38312e-06
1.38312e-06
1.38312e-06
1.38312e-06
1.38312e-06
1.38646e-06
1.38837e-06
1.38857e-06
1.3865e-06
1.38312e-06
1.38312e-06
1.38312e-06
1.38312e-06
1.38312e-06
1.38312e-06
1.38631e-06
1.38808e-06
1.38839e-06
1.38649e-06
1.38312e-06
1.38312e-06
1.38312e-06
1.38312e-06
1.38312e-06
1.38312e-06
1.38627e-06
1.38687e-06
1.38655e-06
1.38312e-06
1.38312e-06
1.38312e-06
1.38312e-06
1.38312e-06
1.38312e-06
1.38637e-06
1.38821e-06
1.38815e-06
1.38604e-06
1.38312e-06
1.38312e-06
1.38312e-06
1.38312e-06
1.3858e-06
1.38662e-06
1.38844e-06
1.38842e-06
1.38673e-06
1.38646e-06
1.38631e-06
1.38627e-06
1.38637e-06
1.38662e-06
1.38808e-06
1.38837e-06
1.38808e-06
1.38687e-06
1.38821e-06
1.38844e-06
1.37118e-06
1.371e-06
1.37095e-06
1.36922e-06
1.36911e-06
1.3691e-06
1.36916e-06
1.37076e-06
1.37102e-06
1.37095e-06
1.36881e-06
1.36573e-06
1.36573e-06
1.36573e-06
1.36573e-06
1.36865e-06
1.36934e-06
1.36922e-06
1.36573e-06
1.36573e-06
1.36573e-06
1.36573e-06
1.36573e-06
1.36573e-06
1.36907e-06
1.37098e-06
1.37118e-06
1.36911e-06
1.36573e-06
1.36573e-06
1.36573e-06
1.36573e-06
1.36573e-06
1.36573e-06
1.36892e-06
1.37069e-06
1.371e-06
1.3691e-06
1.36573e-06
1.36573e-06
1.36573e-06
1.36573e-06
1.36573e-06
1.36573e-06
1.36887e-06
1.36948e-06
1.36916e-06
1.36573e-06
1.36573e-06
1.36573e-06
1.36573e-06
1.36573e-06
1.36573e-06
1.36898e-06
1.37081e-06
1.37075e-06
1.36865e-06
1.36573e-06
1.36573e-06
1.36573e-06
1.36573e-06
1.36841e-06
1.36923e-06
1.37105e-06
1.37102e-06
1.36934e-06
1.36907e-06
1.36892e-06
1.36887e-06
1.36898e-06
1.36923e-06
1.37068e-06
1.37098e-06
1.37069e-06
1.36948e-06
1.37081e-06
1.37105e-06
1.35379e-06
1.35361e-06
1.35356e-06
1.35183e-06
1.35172e-06
1.35171e-06
1.35177e-06
1.35336e-06
1.35363e-06
1.35356e-06
1.35142e-06
1.34834e-06
1.34834e-06
1.34834e-06
1.34834e-06
1.35126e-06
1.35194e-06
1.35183e-06
1.34834e-06
1.34834e-06
1.34834e-06
1.34834e-06
1.34834e-06
1.34834e-06
1.35168e-06
1.35359e-06
1.35378e-06
1.35172e-06
1.34834e-06
1.34834e-06
1.34834e-06
1.34834e-06
1.34834e-06
1.34834e-06
1.35153e-06
1.3533e-06
1.35361e-06
1.35171e-06
1.34834e-06
1.34834e-06
1.34834e-06
1.34834e-06
1.34834e-06
1.34834e-06
1.35148e-06
1.35209e-06
1.35177e-06
1.34834e-06
1.34834e-06
1.34834e-06
1.34834e-06
1.34834e-06
1.34834e-06
1.35159e-06
1.35342e-06
1.35336e-06
1.35126e-06
1.34834e-06
1.34834e-06
1.34834e-06
1.34834e-06
1.35102e-06
1.35183e-06
1.35366e-06
1.35363e-06
1.35194e-06
1.35168e-06
1.35153e-06
1.35148e-06
1.35159e-06
1.35184e-06
1.35329e-06
1.35359e-06
1.3533e-06
1.35209e-06
1.35342e-06
1.35366e-06
1.33639e-06
1.33622e-06
1.33617e-06
1.33444e-06
1.33433e-06
1.33432e-06
1.33438e-06
1.33597e-06
1.33624e-06
1.33617e-06
1.33402e-06
1.33095e-06
1.33095e-06
1.33095e-06
1.33095e-06
1.33387e-06
1.33455e-06
1.33444e-06
1.33095e-06
1.33095e-06
1.33095e-06
1.33095e-06
1.33095e-06
1.33095e-06
1.33429e-06
1.3362e-06
1.3364e-06
1.33433e-06
1.33095e-06
1.33095e-06
1.33095e-06
1.33095e-06
1.33095e-06
1.33095e-06
1.33414e-06
1.33591e-06
1.33622e-06
1.33431e-06
1.33095e-06
1.33095e-06
1.33095e-06
1.33095e-06
1.33095e-06
1.33095e-06
1.33409e-06
1.33469e-06
1.33438e-06
1.33095e-06
1.33095e-06
1.33095e-06
1.33095e-06
1.33095e-06
1.33095e-06
1.3342e-06
1.33603e-06
1.33597e-06
1.33387e-06
1.33095e-06
1.33095e-06
1.33095e-06
1.33095e-06
1.33363e-06
1.33444e-06
1.33627e-06
1.33624e-06
1.33455e-06
1.33429e-06
1.33414e-06
1.33409e-06
1.3342e-06
1.33445e-06
1.3359e-06
1.3362e-06
1.33591e-06
1.3347e-06
1.33603e-06
1.33627e-06
1.319e-06
1.31883e-06
1.31878e-06
1.31705e-06
1.31694e-06
1.31692e-06
1.31698e-06
1.31858e-06
1.31885e-06
1.31878e-06
1.31663e-06
1.31356e-06
1.31356e-06
1.31356e-06
1.31356e-06
1.31648e-06
1.31716e-06
1.31705e-06
1.31356e-06
1.31356e-06
1.31356e-06
1.31356e-06
1.31356e-06
1.31356e-06
1.31689e-06
1.3188e-06
1.319e-06
1.31694e-06
1.31356e-06
1.31356e-06
1.31356e-06
1.31356e-06
1.31356e-06
1.31356e-06
1.31674e-06
1.31852e-06
1.31883e-06
1.31692e-06
1.31356e-06
1.31356e-06
1.31356e-06
1.31356e-06
1.31356e-06
1.31356e-06
1.3167e-06
1.3173e-06
1.31698e-06
1.31356e-06
1.31356e-06
1.31356e-06
1.31356e-06
1.31356e-06
1.31356e-06
1.3168e-06
1.31864e-06
1.31858e-06
1.31648e-06
1.31356e-06
1.31356e-06
1.31356e-06
1.31356e-06
1.31624e-06
1.31705e-06
1.31888e-06
1.31885e-06
1.31716e-06
1.31689e-06
1.31675e-06
1.3167e-06
1.31681e-06
1.31705e-06
1.31851e-06
1.3188e-06
1.31852e-06
1.31731e-06
1.31864e-06
1.31888e-06
1.30161e-06
1.30143e-06
1.30139e-06
1.29966e-06
1.29955e-06
1.29953e-06
1.29959e-06
1.30119e-06
1.30146e-06
1.30139e-06
1.29924e-06
1.29617e-06
1.29617e-06
1.29617e-06
1.29617e-06
1.29909e-06
1.29977e-06
1.29966e-06
1.29617e-06
1.29617e-06
1.29617e-06
1.29617e-06
1.29617e-06
1.29617e-06
1.2995e-06
1.30141e-06
1.30161e-06
1.29955e-06
1.29617e-06
1.29617e-06
1.29617e-06
1.29617e-06
1.29617e-06
1.29617e-06
1.29935e-06
1.30113e-06
1.30143e-06
1.29953e-06
1.29617e-06
1.29617e-06
1.29617e-06
1.29617e-06
1.29617e-06
1.29617e-06
1.29931e-06
1.29991e-06
1.29959e-06
1.29617e-06
1.29617e-06
1.29617e-06
1.29617e-06
1.29617e-06
1.29617e-06
1.29941e-06
1.30125e-06
1.30119e-06
1.29909e-06
1.29617e-06
1.29617e-06
1.29617e-06
1.29617e-06
1.29885e-06
1.29966e-06
1.30149e-06
1.30146e-06
1.29977e-06
1.2995e-06
1.29935e-06
1.29931e-06
1.29942e-06
1.29967e-06
1.30112e-06
1.30141e-06
1.30113e-06
1.29991e-06
1.30125e-06
1.30149e-06
1.28422e-06
1.28404e-06
1.28399e-06
1.28227e-06
1.28215e-06
1.28214e-06
1.2822e-06
1.2838e-06
1.28407e-06
1.284e-06
1.28185e-06
1.27878e-06
1.27878e-06
1.27878e-06
1.27878e-06
1.28169e-06
1.28238e-06
1.28227e-06
1.27878e-06
1.27878e-06
1.27878e-06
1.27878e-06
1.27878e-06
1.27878e-06
1.28211e-06
1.28402e-06
1.28422e-06
1.28215e-06
1.27878e-06
1.27878e-06
1.27878e-06
1.27878e-06
1.27878e-06
1.27878e-06
1.28196e-06
1.28374e-06
1.28404e-06
1.28214e-06
1.27878e-06
1.27878e-06
1.27878e-06
1.27878e-06
1.27878e-06
1.27878e-06
1.28192e-06
1.28252e-06
1.2822e-06
1.27878e-06
1.27878e-06
1.27878e-06
1.27878e-06
1.27878e-06
1.27878e-06
1.28202e-06
1.28386e-06
1.2838e-06
1.28169e-06
1.27878e-06
1.27878e-06
1.27878e-06
1.27878e-06
1.28146e-06
1.28227e-06
1.2841e-06
1.28407e-06
1.28238e-06
1.28211e-06
1.28196e-06
1.28192e-06
1.28202e-06
1.28227e-06
1.28373e-06
1.28402e-06
1.28374e-06
1.28252e-06
1.28386e-06
1.2841e-06
1.26683e-06
1.26665e-06
1.2666e-06
1.26487e-06
1.26476e-06
1.26475e-06
1.26481e-06
1.26641e-06
1.26668e-06
1.26661e-06
1.26446e-06
1.26139e-06
1.26138e-06
1.26138e-06
1.26138e-06
1.2643e-06
1.26499e-06
1.26487e-06
1.26139e-06
1.26139e-06
1.26138e-06
1.26138e-06
1.26138e-06
1.26138e-06
1.26472e-06
1.26663e-06
1.26683e-06
1.26476e-06
1.26139e-06
1.26139e-06
1.26138e-06
1.26138e-06
1.26138e-06
1.26138e-06
1.26457e-06
1.26634e-06
1.26665e-06
1.26475e-06
1.26139e-06
1.26139e-06
1.26138e-06
1.26138e-06
1.26138e-06
1.26138e-06
1.26453e-06
1.26513e-06
1.26481e-06
1.26139e-06
1.26139e-06
1.26138e-06
1.26138e-06
1.26138e-06
1.26138e-06
1.26463e-06
1.26647e-06
1.26641e-06
1.2643e-06
1.26139e-06
1.26138e-06
1.26138e-06
1.26138e-06
1.26406e-06
1.26488e-06
1.2667e-06
1.26668e-06
1.26499e-06
1.26472e-06
1.26457e-06
1.26453e-06
1.26463e-06
1.26488e-06
1.26634e-06
1.26663e-06
1.26634e-06
1.26513e-06
1.26647e-06
1.2667e-06
1.24944e-06
1.24926e-06
1.24921e-06
1.24748e-06
1.24737e-06
1.24736e-06
1.24742e-06
1.24902e-06
1.24928e-06
1.24921e-06
1.24707e-06
1.24399e-06
1.24399e-06
1.24399e-06
1.24399e-06
1.24691e-06
1.2476e-06
1.24748e-06
1.24399e-06
1.24399e-06
1.24399e-06
1.24399e-06
1.24399e-06
1.24399e-06
1.24733e-06
1.24924e-06
1.24944e-06
1.24737e-06
1.24399e-06
1.24399e-06
1.24399e-06
1.24399e-06
1.24399e-06
1.24399e-06
1.24718e-06
1.24895e-06
1.24926e-06
1.24736e-06
1.24399e-06
1.24399e-06
1.24399e-06
1.24399e-06
1.24399e-06
1.24399e-06
1.24713e-06
1.24774e-06
1.24742e-06
1.24399e-06
1.24399e-06
1.24399e-06
1.24399e-06
1.24399e-06
1.24399e-06
1.24724e-06
1.24907e-06
1.24902e-06
1.24691e-06
1.24399e-06
1.24399e-06
1.24399e-06
1.24399e-06
1.24667e-06
1.24748e-06
1.24931e-06
1.24929e-06
1.2476e-06
1.24733e-06
1.24718e-06
1.24713e-06
1.24724e-06
1.24749e-06
1.24894e-06
1.24924e-06
1.24895e-06
1.24774e-06
1.24907e-06
1.24931e-06
1.23205e-06
1.23187e-06
1.23182e-06
1.23009e-06
1.22998e-06
1.22997e-06
1.23003e-06
1.23162e-06
1.23189e-06
1.23182e-06
1.22968e-06
1.2266e-06
1.2266e-06
1.2266e-06
1.2266e-06
1.22952e-06
1.2302e-06
1.23009e-06
1.2266e-06
1.2266e-06
1.2266e-06
1.2266e-06
1.2266e-06
1.2266e-06
1.22994e-06
1.23185e-06
1.23205e-06
1.22998e-06
1.2266e-06
1.2266e-06
1.2266e-06
1.2266e-06
1.2266e-06
1.2266e-06
1.22979e-06
1.23156e-06
1.23187e-06
1.22997e-06
1.2266e-06
1.2266e-06
1.2266e-06
1.2266e-06
1.2266e-06
1.2266e-06
1.22974e-06
1.23035e-06
1.23003e-06
1.2266e-06
1.2266e-06
1.2266e-06
1.2266e-06
1.2266e-06
1.2266e-06
1.22985e-06
1.23168e-06
1.23162e-06
1.22952e-06
1.2266e-06
1.2266e-06
1.2266e-06
1.2266e-06
1.22928e-06
1.23009e-06
1.23192e-06
1.23189e-06
1.2302e-06
1.22994e-06
1.22979e-06
1.22974e-06
1.22985e-06
1.2301e-06
1.23155e-06
1.23185e-06
1.23156e-06
1.23035e-06
1.23168e-06
1.23192e-06
1.21465e-06
1.21448e-06
1.21443e-06
1.2127e-06
1.21259e-06
1.21257e-06
1.21263e-06
1.21423e-06
1.2145e-06
1.21443e-06
1.21228e-06
1.20921e-06
1.20921e-06
1.20921e-06
1.20921e-06
1.21213e-06
1.21281e-06
1.2127e-06
1.20921e-06
1.20921e-06
1.20921e-06
1.20921e-06
1.20921e-06
1.20921e-06
1.21254e-06
1.21445e-06
1.21465e-06
1.21259e-06
1.20921e-06
1.20921e-06
1.20921e-06
1.20921e-06
1.20921e-06
1.20921e-06
1.21239e-06
1.21417e-06
1.21447e-06
1.21257e-06
1.20921e-06
1.20921e-06
1.20921e-06
1.20921e-06
1.20921e-06
1.20921e-06
1.21235e-06
1.21295e-06
1.21263e-06
1.20921e-06
1.20921e-06
1.20921e-06
1.20921e-06
1.20921e-06
1.20921e-06
1.21245e-06
1.21429e-06
1.21423e-06
1.21213e-06
1.20921e-06
1.20921e-06
1.20921e-06
1.20921e-06
1.21189e-06
1.2127e-06
1.21453e-06
1.2145e-06
1.21281e-06
1.21254e-06
1.21239e-06
1.21235e-06
1.21246e-06
1.21271e-06
1.21416e-06
1.21445e-06
1.21417e-06
1.21295e-06
1.21429e-06
1.21453e-06
1.19726e-06
1.19708e-06
1.19704e-06
1.19531e-06
1.19519e-06
1.19518e-06
1.19524e-06
1.19684e-06
1.19711e-06
1.19704e-06
1.19489e-06
1.19182e-06
1.19182e-06
1.19182e-06
1.19182e-06
1.19474e-06
1.19542e-06
1.19531e-06
1.19182e-06
1.19182e-06
1.19182e-06
1.19182e-06
1.19182e-06
1.19182e-06
1.19515e-06
1.19706e-06
1.19726e-06
1.1952e-06
1.19182e-06
1.19182e-06
1.19182e-06
1.19182e-06
1.19182e-06
1.19182e-06
1.195e-06
1.19678e-06
1.19709e-06
1.19518e-06
1.19182e-06
1.19182e-06
1.19182e-06
1.19182e-06
1.19182e-06
1.19182e-06
1.19496e-06
1.19556e-06
1.19524e-06
1.19182e-06
1.19182e-06
1.19182e-06
1.19182e-06
1.19182e-06
1.19182e-06
1.19506e-06
1.1969e-06
1.19684e-06
1.19473e-06
1.19182e-06
1.19182e-06
1.19182e-06
1.19182e-06
1.1945e-06
1.19531e-06
1.19714e-06
1.19711e-06
1.19542e-06
1.19515e-06
1.195e-06
1.19496e-06
1.19506e-06
1.19531e-06
1.19677e-06
1.19706e-06
1.19678e-06
1.19556e-06
1.1969e-06
1.19714e-06
1.17987e-06
1.17969e-06
1.17965e-06
1.17792e-06
1.1778e-06
1.17779e-06
1.17785e-06
1.17945e-06
1.17972e-06
1.17965e-06
1.1775e-06
1.17443e-06
1.17443e-06
1.17443e-06
1.17443e-06
1.17734e-06
1.17803e-06
1.17792e-06
1.17443e-06
1.17443e-06
1.17443e-06
1.17443e-06
1.17443e-06
1.17443e-06
1.17776e-06
1.17967e-06
1.17986e-06
1.17781e-06
1.17443e-06
1.17443e-06
1.17443e-06
1.17443e-06
1.17443e-06
1.17443e-06
1.17761e-06
1.17939e-06
1.17969e-06
1.17779e-06
1.17443e-06
1.17443e-06
1.17443e-06
1.17443e-06
1.17443e-06
1.17443e-06
1.17757e-06
1.17817e-06
1.17785e-06
1.17443e-06
1.17443e-06
1.17443e-06
1.17443e-06
1.17443e-06
1.17443e-06
1.17767e-06
1.17951e-06
1.17945e-06
1.17734e-06
1.17443e-06
1.17443e-06
1.17443e-06
1.17443e-06
1.1771e-06
1.17792e-06
1.17974e-06
1.17972e-06
1.17803e-06
1.17776e-06
1.17761e-06
1.17757e-06
1.17767e-06
1.17792e-06
1.17938e-06
1.17967e-06
1.17939e-06
1.17817e-06
1.17951e-06
1.17975e-06
1.16248e-06
1.1623e-06
1.16225e-06
1.16052e-06
1.16041e-06
1.1604e-06
1.16046e-06
1.16206e-06
1.16233e-06
1.16226e-06
1.16011e-06
1.15704e-06
1.15704e-06
1.15704e-06
1.15704e-06
1.15995e-06
1.16064e-06
1.16052e-06
1.15704e-06
1.15704e-06
1.15704e-06
1.15704e-06
1.15704e-06
1.15704e-06
1.16037e-06
1.16228e-06
1.16248e-06
1.16041e-06
1.15704e-06
1.15704e-06
1.15704e-06
1.15704e-06
1.15704e-06
1.15704e-06
1.16022e-06
1.16199e-06
1.16231e-06
1.1604e-06
1.15704e-06
1.15704e-06
1.15704e-06
1.15704e-06
1.15704e-06
1.15704e-06
1.16018e-06
1.16078e-06
1.16046e-06
1.15703e-06
1.15704e-06
1.15704e-06
1.15704e-06
1.15704e-06
1.15704e-06
1.16028e-06
1.16212e-06
1.16206e-06
1.15995e-06
1.15703e-06
1.15704e-06
1.15704e-06
1.15704e-06
1.15971e-06
1.16053e-06
1.16235e-06
1.16233e-06
1.16064e-06
1.16037e-06
1.16022e-06
1.16018e-06
1.16028e-06
1.16053e-06
1.16199e-06
1.16228e-06
1.16199e-06
1.16078e-06
1.16212e-06
1.16235e-06
1.14509e-06
1.14491e-06
1.14486e-06
1.14313e-06
1.14302e-06
1.14301e-06
1.14307e-06
1.14467e-06
1.14494e-06
1.14486e-06
1.14272e-06
1.13964e-06
1.13964e-06
1.13964e-06
1.13964e-06
1.14256e-06
1.14325e-06
1.14313e-06
1.13964e-06
1.13964e-06
1.13964e-06
1.13964e-06
1.13964e-06
1.13964e-06
1.14298e-06
1.14489e-06
1.14509e-06
1.14302e-06
1.13964e-06
1.13964e-06
1.13964e-06
1.13964e-06
1.13964e-06
1.13964e-06
1.14283e-06
1.1446e-06
1.14491e-06
1.14301e-06
1.13964e-06
1.13964e-06
1.13964e-06
1.13964e-06
1.13964e-06
1.13964e-06
1.14279e-06
1.14339e-06
1.14307e-06
1.13964e-06
1.13964e-06
1.13964e-06
1.13964e-06
1.13964e-06
1.13964e-06
1.14289e-06
1.14473e-06
1.14467e-06
1.14256e-06
1.13964e-06
1.13964e-06
1.13964e-06
1.13964e-06
1.14232e-06
1.14314e-06
1.14496e-06
1.14494e-06
1.14325e-06
1.14298e-06
1.14283e-06
1.14279e-06
1.14289e-06
1.14314e-06
1.1446e-06
1.14489e-06
1.1446e-06
1.14339e-06
1.14473e-06
1.14496e-06
1.1277e-06
1.12752e-06
1.12747e-06
1.12574e-06
1.12563e-06
1.12562e-06
1.12568e-06
1.12728e-06
1.12755e-06
1.12747e-06
1.12533e-06
1.12225e-06
1.12225e-06
1.12225e-06
1.12225e-06
1.12517e-06
1.12586e-06
1.12574e-06
1.12225e-06
1.12225e-06
1.12225e-06
1.12225e-06
1.12225e-06
1.12225e-06
1.12559e-06
1.1275e-06
1.1277e-06
1.12563e-06
1.12225e-06
1.12225e-06
1.12225e-06
1.12225e-06
1.12225e-06
1.12225e-06
1.12544e-06
1.12721e-06
1.12752e-06
1.12562e-06
1.12225e-06
1.12225e-06
1.12225e-06
1.12225e-06
1.12225e-06
1.12225e-06
1.1254e-06
1.126e-06
1.12568e-06
1.12225e-06
1.12225e-06
1.12225e-06
1.12225e-06
1.12225e-06
1.12225e-06
1.1255e-06
1.12734e-06
1.12728e-06
1.12517e-06
1.12225e-06
1.12225e-06
1.12225e-06
1.12225e-06
1.12493e-06
1.12575e-06
1.12757e-06
1.12755e-06