/*--------------------------------*- C++ -*----------------------------------*\
| =========                 |                                                 |
| \\      /  F ield         | OpenFOAM: The Open Source CFD Toolbox           |
|  \\    /   O peration     | Version:  v2012                                 |
|   \\  /    A nd           | Website:  www.openfoam.com                      |
|    \\/     M anipulation  |                                                 |
\*---------------------------------------------------------------------------*/
FoamFile
{
    version     2.0;
    format      ascii;
    class       volScalarField;
    location    "18";
    object      p;
}
// * * * * * * * * * * * * * * * * * * * * * * * * * * * * * * * * * * * * * //

dimensions      [0 2 -2 0 0 0 0];


internalField   nonuniform List<scalar> 
244288
(
1.42882e-06
1.42889e-06
1.42887e-06
1.42879e-06
1.42875e-06
1.4288e-06
1.42887e-06
1.4289e-06
1.42892e-06
1.42871e-06
1.42847e-06
1.42838e-06
1.42849e-06
1.42874e-06
1.42893e-06
1.42887e-06
1.42871e-06
1.42832e-06
1.42799e-06
1.42788e-06
1.42802e-06
1.42837e-06
1.42875e-06
1.42886e-06
1.42879e-06
1.42847e-06
1.42799e-06
1.42762e-06
1.4275e-06
1.42766e-06
1.42805e-06
1.42853e-06
1.42881e-06
1.42882e-06
1.42875e-06
1.42838e-06
1.42788e-06
1.4275e-06
1.42737e-06
1.42753e-06
1.42794e-06
1.42844e-06
1.42876e-06
1.4288e-06
1.4285e-06
1.42802e-06
1.42766e-06
1.42753e-06
1.42769e-06
1.42808e-06
1.42855e-06
1.42881e-06
1.42887e-06
1.42874e-06
1.42837e-06
1.42805e-06
1.42794e-06
1.42808e-06
1.42842e-06
1.42878e-06
1.42886e-06
1.42893e-06
1.42875e-06
1.42853e-06
1.42844e-06
1.42855e-06
1.42878e-06
1.42894e-06
1.42886e-06
1.42881e-06
1.42876e-06
1.42881e-06
1.42886e-06
1.40771e-06
1.40739e-06
1.40725e-06
1.40587e-06
1.40577e-06
1.40576e-06
1.40579e-06
1.40719e-06
1.40731e-06
1.40725e-06
1.40539e-06
1.40309e-06
1.40309e-06
1.40309e-06
1.40309e-06
1.40549e-06
1.406e-06
1.40587e-06
1.40309e-06
1.40305e-06
1.40309e-06
1.40309e-06
1.40305e-06
1.40309e-06
1.40595e-06
1.40745e-06
1.40771e-06
1.40577e-06
1.40309e-06
1.40309e-06
1.40314e-06
1.40314e-06
1.40309e-06
1.40309e-06
1.4059e-06
1.40722e-06
1.40739e-06
1.40576e-06
1.40309e-06
1.40309e-06
1.40314e-06
1.40314e-06
1.40309e-06
1.40309e-06
1.40586e-06
1.40611e-06
1.40579e-06
1.40309e-06
1.40305e-06
1.40309e-06
1.40309e-06
1.40305e-06
1.40309e-06
1.40592e-06
1.40737e-06
1.40719e-06
1.40549e-06
1.40309e-06
1.40309e-06
1.40309e-06
1.40309e-06
1.40553e-06
1.40601e-06
1.40746e-06
1.40731e-06
1.406e-06
1.40595e-06
1.4059e-06
1.40586e-06
1.40592e-06
1.40601e-06
1.40719e-06
1.40745e-06
1.40722e-06
1.40611e-06
1.40737e-06
1.40746e-06
1.39269e-06
1.39257e-06
1.39247e-06
1.391e-06
1.39092e-06
1.39089e-06
1.39097e-06
1.3924e-06
1.39257e-06
1.39247e-06
1.39055e-06
1.3881e-06
1.38809e-06
1.38809e-06
1.3881e-06
1.39063e-06
1.39122e-06
1.391e-06
1.3881e-06
1.38807e-06
1.38808e-06
1.38808e-06
1.38807e-06
1.3881e-06
1.39113e-06
1.39266e-06
1.39269e-06
1.39092e-06
1.38809e-06
1.38808e-06
1.38809e-06
1.38809e-06
1.38808e-06
1.38809e-06
1.39108e-06
1.39242e-06
1.39257e-06
1.39089e-06
1.38809e-06
1.38808e-06
1.38809e-06
1.38809e-06
1.38808e-06
1.38809e-06
1.39105e-06
1.39131e-06
1.39097e-06
1.3881e-06
1.38807e-06
1.38808e-06
1.38808e-06
1.38807e-06
1.3881e-06
1.39111e-06
1.3926e-06
1.3924e-06
1.39063e-06
1.3881e-06
1.38809e-06
1.38809e-06
1.3881e-06
1.39071e-06
1.39119e-06
1.39268e-06
1.39257e-06
1.39122e-06
1.39113e-06
1.39108e-06
1.39105e-06
1.39111e-06
1.39119e-06
1.39247e-06
1.39266e-06
1.39242e-06
1.39131e-06
1.3926e-06
1.39268e-06
1.37773e-06
1.37762e-06
1.37751e-06
1.37604e-06
1.37595e-06
1.37591e-06
1.376e-06
1.37744e-06
1.37761e-06
1.37751e-06
1.37557e-06
1.37311e-06
1.37311e-06
1.37311e-06
1.37311e-06
1.37565e-06
1.37625e-06
1.37604e-06
1.37311e-06
1.37311e-06
1.37311e-06
1.37311e-06
1.37311e-06
1.37311e-06
1.37617e-06
1.3777e-06
1.37773e-06
1.37595e-06
1.37311e-06
1.37311e-06
1.37311e-06
1.37311e-06
1.37311e-06
1.37311e-06
1.37612e-06
1.37747e-06
1.37762e-06
1.37591e-06
1.37311e-06
1.37311e-06
1.37311e-06
1.37311e-06
1.37311e-06
1.37311e-06
1.37609e-06
1.37636e-06
1.376e-06
1.37311e-06
1.37311e-06
1.37311e-06
1.37311e-06
1.37311e-06
1.37311e-06
1.37615e-06
1.37765e-06
1.37744e-06
1.37565e-06
1.37311e-06
1.37311e-06
1.37311e-06
1.37311e-06
1.37576e-06
1.37624e-06
1.37772e-06
1.37761e-06
1.37625e-06
1.37617e-06
1.37612e-06
1.37609e-06
1.37615e-06
1.37624e-06
1.37751e-06
1.3777e-06
1.37747e-06
1.37636e-06
1.37765e-06
1.37772e-06
1.36276e-06
1.36265e-06
1.36254e-06
1.36106e-06
1.36097e-06
1.36093e-06
1.36103e-06
1.36246e-06
1.36264e-06
1.36254e-06
1.36059e-06
1.35813e-06
1.35813e-06
1.35813e-06
1.35813e-06
1.36067e-06
1.36128e-06
1.36106e-06
1.35813e-06
1.35813e-06
1.35813e-06
1.35813e-06
1.35813e-06
1.35813e-06
1.36119e-06
1.36273e-06
1.36276e-06
1.36097e-06
1.35813e-06
1.35813e-06
1.35813e-06
1.35813e-06
1.35813e-06
1.35813e-06
1.36115e-06
1.3625e-06
1.36265e-06
1.36093e-06
1.35813e-06
1.35813e-06
1.35813e-06
1.35813e-06
1.35813e-06
1.35813e-06
1.36112e-06
1.36139e-06
1.36103e-06
1.35813e-06
1.35813e-06
1.35813e-06
1.35813e-06
1.35813e-06
1.35813e-06
1.36118e-06
1.36268e-06
1.36246e-06
1.36067e-06
1.35813e-06
1.35813e-06
1.35813e-06
1.35813e-06
1.36079e-06
1.36126e-06
1.36275e-06
1.36264e-06
1.36128e-06
1.36119e-06
1.36115e-06
1.36112e-06
1.36118e-06
1.36126e-06
1.36254e-06
1.36273e-06
1.3625e-06
1.36139e-06
1.36268e-06
1.36275e-06
1.34779e-06
1.34767e-06
1.34756e-06
1.34609e-06
1.346e-06
1.34596e-06
1.34606e-06
1.34749e-06
1.34767e-06
1.34756e-06
1.34562e-06
1.34316e-06
1.34316e-06
1.34316e-06
1.34316e-06
1.3457e-06
1.34631e-06
1.34609e-06
1.34316e-06
1.34316e-06
1.34316e-06
1.34316e-06
1.34316e-06
1.34316e-06
1.34622e-06
1.34776e-06
1.34779e-06
1.346e-06
1.34316e-06
1.34316e-06
1.34316e-06
1.34316e-06
1.34316e-06
1.34316e-06
1.34618e-06
1.34753e-06
1.34767e-06
1.34596e-06
1.34316e-06
1.34316e-06
1.34316e-06
1.34316e-06
1.34316e-06
1.34316e-06
1.34615e-06
1.34642e-06
1.34606e-06
1.34316e-06
1.34316e-06
1.34316e-06
1.34316e-06
1.34316e-06
1.34316e-06
1.3462e-06
1.34771e-06
1.34749e-06
1.3457e-06
1.34316e-06
1.34316e-06
1.34316e-06
1.34316e-06
1.34582e-06
1.34629e-06
1.34778e-06
1.34767e-06
1.34631e-06
1.34622e-06
1.34618e-06
1.34615e-06
1.3462e-06
1.34629e-06
1.34757e-06
1.34776e-06
1.34753e-06
1.34642e-06
1.34771e-06
1.34778e-06
1.33282e-06
1.3327e-06
1.33259e-06
1.33111e-06
1.33103e-06
1.33098e-06
1.33108e-06
1.33252e-06
1.33269e-06
1.33259e-06
1.33065e-06
1.32819e-06
1.32819e-06
1.32819e-06
1.32819e-06
1.33073e-06
1.33133e-06
1.33111e-06
1.32819e-06
1.32819e-06
1.32819e-06
1.32819e-06
1.32819e-06
1.32819e-06
1.33125e-06
1.33279e-06
1.33282e-06
1.33102e-06
1.32819e-06
1.32819e-06
1.32819e-06
1.32819e-06
1.32819e-06
1.32819e-06
1.3312e-06
1.33256e-06
1.33271e-06
1.33098e-06
1.32819e-06
1.32819e-06
1.32819e-06
1.32819e-06
1.32819e-06
1.32819e-06
1.33118e-06
1.33144e-06
1.33108e-06
1.32819e-06
1.32819e-06
1.32819e-06
1.32819e-06
1.32819e-06
1.32819e-06
1.33123e-06
1.33273e-06
1.33252e-06
1.33073e-06
1.32819e-06
1.32819e-06
1.32819e-06
1.32819e-06
1.33085e-06
1.33132e-06
1.3328e-06
1.33269e-06
1.33133e-06
1.33125e-06
1.3312e-06
1.33118e-06
1.33123e-06
1.33132e-06
1.3326e-06
1.33279e-06
1.33256e-06
1.33144e-06
1.33273e-06
1.3328e-06
1.31784e-06
1.31773e-06
1.31762e-06
1.31614e-06
1.31605e-06
1.31601e-06
1.31611e-06
1.31754e-06
1.31772e-06
1.31762e-06
1.31567e-06
1.31321e-06
1.31321e-06
1.31321e-06
1.31321e-06
1.31575e-06
1.31636e-06
1.31614e-06
1.31321e-06
1.31321e-06
1.31321e-06
1.31321e-06
1.31321e-06
1.31321e-06
1.31627e-06
1.31781e-06
1.31784e-06
1.31605e-06
1.31321e-06
1.31321e-06
1.31321e-06
1.31321e-06
1.31321e-06
1.31321e-06
1.31623e-06
1.31758e-06
1.31773e-06
1.31601e-06
1.31321e-06
1.31321e-06
1.31321e-06
1.31321e-06
1.31321e-06
1.31321e-06
1.3162e-06
1.31647e-06
1.31611e-06
1.31321e-06
1.31321e-06
1.31321e-06
1.31321e-06
1.31321e-06
1.31321e-06
1.31626e-06
1.31776e-06
1.31754e-06
1.31575e-06
1.31321e-06
1.31321e-06
1.31321e-06
1.31321e-06
1.31588e-06
1.31635e-06
1.31783e-06
1.31772e-06
1.31636e-06
1.31627e-06
1.31623e-06
1.3162e-06
1.31626e-06
1.31635e-06
1.31762e-06
1.31781e-06
1.31758e-06
1.31647e-06
1.31776e-06
1.31783e-06
1.30287e-06
1.30276e-06
1.30264e-06
1.30117e-06
1.30108e-06
1.30104e-06
1.30114e-06
1.30257e-06
1.30275e-06
1.30264e-06
1.3007e-06
1.29824e-06
1.29824e-06
1.29824e-06
1.29824e-06
1.30078e-06
1.30139e-06
1.30117e-06
1.29824e-06
1.29824e-06
1.29824e-06
1.29824e-06
1.29824e-06
1.29824e-06
1.3013e-06
1.30284e-06
1.30287e-06
1.30108e-06
1.29824e-06
1.29824e-06
1.29824e-06
1.29824e-06
1.29824e-06
1.29824e-06
1.30126e-06
1.30261e-06
1.30276e-06
1.30104e-06
1.29824e-06
1.29824e-06
1.29824e-06
1.29824e-06
1.29824e-06
1.29824e-06
1.30123e-06
1.3015e-06
1.30114e-06
1.29824e-06
1.29824e-06
1.29824e-06
1.29824e-06
1.29824e-06
1.29824e-06
1.30129e-06
1.30279e-06
1.30257e-06
1.30078e-06
1.29824e-06
1.29824e-06
1.29824e-06
1.29824e-06
1.3009e-06
1.30137e-06
1.30286e-06
1.30275e-06
1.30139e-06
1.3013e-06
1.30126e-06
1.30123e-06
1.30129e-06
1.30137e-06
1.30265e-06
1.30284e-06
1.30261e-06
1.3015e-06
1.30279e-06
1.30286e-06
1.2879e-06
1.28778e-06
1.28767e-06
1.2862e-06
1.28611e-06
1.28607e-06
1.28617e-06
1.2876e-06
1.28778e-06
1.28767e-06
1.28573e-06
1.28327e-06
1.28327e-06
1.28327e-06
1.28327e-06
1.28581e-06
1.28642e-06
1.2862e-06
1.28327e-06
1.28327e-06
1.28327e-06
1.28327e-06
1.28327e-06
1.28327e-06
1.28633e-06
1.28787e-06
1.2879e-06
1.28611e-06
1.28327e-06
1.28327e-06
1.28327e-06
1.28327e-06
1.28327e-06
1.28327e-06
1.28629e-06
1.28764e-06
1.28778e-06
1.28607e-06
1.28327e-06
1.28327e-06
1.28327e-06
1.28327e-06
1.28327e-06
1.28327e-06
1.28626e-06
1.28653e-06
1.28617e-06
1.28327e-06
1.28327e-06
1.28327e-06
1.28327e-06
1.28327e-06
1.28327e-06
1.28631e-06
1.28782e-06
1.2876e-06
1.28581e-06
1.28327e-06
1.28327e-06
1.28327e-06
1.28327e-06
1.28593e-06
1.2864e-06
1.28789e-06
1.28778e-06
1.28642e-06
1.28633e-06
1.28629e-06
1.28626e-06
1.28631e-06
1.2864e-06
1.28768e-06
1.28787e-06
1.28764e-06
1.28653e-06
1.28782e-06
1.28789e-06
1.27293e-06
1.27281e-06
1.2727e-06
1.27122e-06
1.27114e-06
1.27109e-06
1.27119e-06
1.27263e-06
1.2728e-06
1.2727e-06
1.27076e-06
1.2683e-06
1.2683e-06
1.2683e-06
1.2683e-06
1.27084e-06
1.27144e-06
1.27122e-06
1.2683e-06
1.2683e-06
1.2683e-06
1.2683e-06
1.2683e-06
1.2683e-06
1.27136e-06
1.2729e-06
1.27293e-06
1.27114e-06
1.2683e-06
1.2683e-06
1.2683e-06
1.2683e-06
1.2683e-06
1.2683e-06
1.27131e-06
1.27267e-06
1.27281e-06
1.27109e-06
1.2683e-06
1.2683e-06
1.2683e-06
1.2683e-06
1.2683e-06
1.2683e-06
1.27129e-06
1.27156e-06
1.27119e-06
1.2683e-06
1.2683e-06
1.2683e-06
1.2683e-06
1.2683e-06
1.2683e-06
1.27134e-06
1.27284e-06
1.27263e-06
1.27084e-06
1.2683e-06
1.2683e-06
1.2683e-06
1.2683e-06
1.27096e-06
1.27143e-06
1.27291e-06
1.2728e-06
1.27144e-06
1.27136e-06
1.27131e-06
1.27129e-06
1.27134e-06
1.27143e-06
1.27271e-06
1.2729e-06
1.27267e-06
1.27156e-06
1.27284e-06
1.27291e-06
1.25795e-06
1.25784e-06
1.25773e-06
1.25625e-06
1.25616e-06
1.25612e-06
1.25622e-06
1.25766e-06
1.25783e-06
1.25773e-06
1.25578e-06
1.25332e-06
1.25332e-06
1.25332e-06
1.25332e-06
1.25586e-06
1.25647e-06
1.25625e-06
1.25332e-06
1.25332e-06
1.25332e-06
1.25332e-06
1.25332e-06
1.25332e-06
1.25638e-06
1.25792e-06
1.25795e-06
1.25616e-06
1.25332e-06
1.25332e-06
1.25332e-06
1.25332e-06
1.25332e-06
1.25332e-06
1.25634e-06
1.25769e-06
1.25784e-06
1.25612e-06
1.25332e-06
1.25332e-06
1.25332e-06
1.25332e-06
1.25332e-06
1.25332e-06
1.25631e-06
1.25658e-06
1.25622e-06
1.25332e-06
1.25332e-06
1.25332e-06
1.25332e-06
1.25332e-06
1.25332e-06
1.25637e-06
1.25787e-06
1.25766e-06
1.25586e-06
1.25332e-06
1.25332e-06
1.25332e-06
1.25332e-06
1.25599e-06
1.25646e-06
1.25794e-06
1.25783e-06
1.25647e-06
1.25638e-06
1.25634e-06
1.25631e-06
1.25637e-06
1.25646e-06
1.25773e-06
1.25792e-06
1.2577e-06
1.25658e-06
1.25787e-06
1.25794e-06
1.24298e-06
1.24287e-06
1.24276e-06
1.24128e-06
1.24119e-06
1.24115e-06
1.24125e-06
1.24268e-06
1.24286e-06
1.24276e-06
1.24081e-06
1.23835e-06
1.23835e-06
1.23835e-06
1.23835e-06
1.24089e-06
1.2415e-06
1.24128e-06
1.23835e-06
1.23835e-06
1.23835e-06
1.23835e-06
1.23835e-06
1.23835e-06
1.24141e-06
1.24295e-06
1.24298e-06
1.24119e-06
1.23835e-06
1.23835e-06
1.23835e-06
1.23835e-06
1.23835e-06
1.23835e-06
1.24137e-06
1.24272e-06
1.24287e-06
1.24115e-06
1.23835e-06
1.23835e-06
1.23835e-06
1.23835e-06
1.23835e-06
1.23835e-06
1.24134e-06
1.24161e-06
1.24125e-06
1.23835e-06
1.23835e-06
1.23835e-06
1.23835e-06
1.23835e-06
1.23835e-06
1.2414e-06
1.2429e-06
1.24268e-06
1.24089e-06
1.23835e-06
1.23835e-06
1.23835e-06
1.23835e-06
1.24101e-06
1.24148e-06
1.24297e-06
1.24286e-06
1.2415e-06
1.24141e-06
1.24137e-06
1.24134e-06
1.2414e-06
1.24148e-06
1.24276e-06
1.24295e-06
1.24272e-06
1.24161e-06
1.2429e-06
1.24297e-06
1.22801e-06
1.22789e-06
1.22778e-06
1.22631e-06
1.22622e-06
1.22618e-06
1.22628e-06
1.22771e-06
1.22789e-06
1.22778e-06
1.22584e-06
1.22338e-06
1.22338e-06
1.22338e-06
1.22338e-06
1.22592e-06
1.22653e-06
1.22631e-06
1.22338e-06
1.22338e-06
1.22338e-06
1.22338e-06
1.22338e-06
1.22338e-06
1.22644e-06
1.22798e-06
1.22801e-06
1.22622e-06
1.22338e-06
1.22338e-06
1.22338e-06
1.22338e-06
1.22338e-06
1.22338e-06
1.2264e-06
1.22775e-06
1.2279e-06
1.22618e-06
1.22338e-06
1.22338e-06
1.22338e-06
1.22338e-06
1.22338e-06
1.22338e-06
1.22637e-06
1.22664e-06
1.22628e-06
1.22338e-06
1.22338e-06
1.22338e-06
1.22338e-06
1.22338e-06
1.22338e-06
1.22642e-06
1.22793e-06
1.22771e-06
1.22592e-06
1.22338e-06
1.22338e-06
1.22338e-06
1.22338e-06
1.22604e-06
1.22651e-06
1.228e-06
1.22789e-06
1.22653e-06
1.22644e-06
1.2264e-06
1.22637e-06
1.22642e-06
1.22651e-06
1.22779e-06
1.22798e-06
1.22775e-06
1.22664e-06
1.22793e-06
1.228e-06
1.21304e-06
1.21292e-06
1.21281e-06
1.21134e-06
1.21125e-06
1.2112e-06
1.2113e-06
1.21274e-06
1.21291e-06
1.21281e-06
1.21087e-06
1.20841e-06
1.20841e-06
1.20841e-06
1.20841e-06
1.21095e-06
1.21156e-06
1.21134e-06
1.20841e-06
1.20841e-06
1.20841e-06
1.20841e-06
1.20841e-06
1.20841e-06
1.21147e-06
1.21301e-06
1.21304e-06
1.21125e-06
1.20841e-06
1.20841e-06
1.20841e-06
1.20841e-06
1.20841e-06
1.20841e-06
1.21143e-06
1.21278e-06
1.21292e-06
1.2112e-06
1.20841e-06
1.20841e-06
1.20841e-06
1.20841e-06
1.20841e-06
1.20841e-06
1.2114e-06
1.21167e-06
1.2113e-06
1.20841e-06
1.20841e-06
1.20841e-06
1.20841e-06
1.20841e-06
1.20841e-06
1.21145e-06
1.21295e-06
1.21274e-06
1.21095e-06
1.20841e-06
1.20841e-06
1.20841e-06
1.20841e-06
1.21107e-06
1.21154e-06
1.21303e-06
1.21291e-06
1.21156e-06
1.21147e-06
1.21143e-06
1.2114e-06
1.21145e-06
1.21154e-06
1.21282e-06
1.21301e-06
1.21278e-06
1.21167e-06
1.21295e-06
1.21303e-06
1.19807e-06
1.19795e-06
1.19784e-06
1.19636e-06
1.19627e-06
1.19623e-06
1.19633e-06
1.19777e-06
1.19794e-06
1.19784e-06
1.1959e-06
1.19344e-06
1.19344e-06
1.19344e-06
1.19343e-06
1.19598e-06
1.19658e-06
1.19636e-06
1.19344e-06
1.19344e-06
1.19344e-06
1.19344e-06
1.19344e-06
1.19343e-06
1.1965e-06
1.19803e-06
1.19807e-06
1.19627e-06
1.19344e-06
1.19344e-06
1.19344e-06
1.19344e-06
1.19344e-06
1.19344e-06
1.19645e-06
1.19781e-06
1.19795e-06
1.19623e-06
1.19344e-06
1.19344e-06
1.19344e-06
1.19344e-06
1.19344e-06
1.19343e-06
1.19643e-06
1.19669e-06
1.19633e-06
1.19343e-06
1.19344e-06
1.19344e-06
1.19344e-06
1.19344e-06
1.19343e-06
1.19648e-06
1.19798e-06
1.19777e-06
1.19598e-06
1.19343e-06
1.19343e-06
1.19344e-06
1.19343e-06
1.1961e-06
1.19657e-06
1.19805e-06
1.19794e-06
1.19658e-06
1.1965e-06
1.19645e-06
1.19643e-06
1.19648e-06
1.19657e-06
1.19784e-06
1.19803e-06
1.19781e-06
1.19669e-06
1.19798e-06
1.19805e-06
1.18309e-06
1.18298e-06
1.18287e-06
1.18139e-06
1.1813e-06
1.18126e-06
1.18136e-06
1.18279e-06
1.18297e-06
1.18287e-06
1.18092e-06
1.17846e-06
1.17846e-06
1.17846e-06
1.17846e-06
1.181e-06
1.18161e-06
1.18139e-06
1.17846e-06
1.17846e-06
1.17846e-06
1.17846e-06
1.17846e-06
1.17846e-06
1.18152e-06
1.18306e-06
1.18309e-06
1.1813e-06
1.17846e-06
1.17846e-06
1.17846e-06
1.17846e-06
1.17846e-06
1.17846e-06
1.18148e-06
1.18283e-06
1.18298e-06
1.18126e-06
1.17846e-06
1.17846e-06
1.17846e-06
1.17846e-06
1.17846e-06
1.17846e-06
1.18145e-06
1.18172e-06
1.18136e-06
1.17846e-06
1.17846e-06
1.17846e-06
1.17846e-06
1.17846e-06
1.17846e-06
1.18151e-06
1.18301e-06
1.18279e-06
1.181e-06
1.17846e-06
1.17846e-06
1.17846e-06
1.17846e-06
1.18112e-06
1.1816e-06
1.18308e-06
1.18297e-06
1.18161e-06
1.18152e-06
1.18148e-06
1.18145e-06
1.18151e-06
1.1816e-06
1.18287e-06
1.18306e-06
1.18283e-06
1.18172e-06
1.18301e-06
1.18308e-06
1.16812e-06
1.16801e-06
1.16789e-06
1.16642e-06
1.16633e-06
1.16629e-06
1.16639e-06
1.16782e-06
1.168e-06
1.16789e-06
1.16595e-06
1.16349e-06
1.16349e-06
1.16349e-06
1.16349e-06
1.16603e-06
1.16664e-06
1.16642e-06
1.16349e-06
1.16349e-06
1.16349e-06
1.16349e-06
1.16349e-06
1.16349e-06
1.16655e-06
1.16809e-06
1.16812e-06
1.16633e-06
1.16349e-06
1.16349e-06
1.16349e-06
1.16349e-06
1.16349e-06
1.16349e-06
1.16651e-06
1.16786e-06
1.16801e-06
1.16629e-06
1.16349e-06
1.16349e-06
1.16349e-06
1.16349e-06
1.16349e-06
1.16349e-06
1.16648e-06
1.16675e-06
1.16639e-06
1.16349e-06
1.16349e-06
1.16349e-06
1.16349e-06
1.16349e-06
1.16349e-06
1.16654e-06
1.16804e-06
1.16782e-06
1.16603e-06
1.16349e-06
1.16349e-06
1.16349e-06
1.16349e-06
1.16615e-06
1.16662e-06
1.16811e-06
1.168e-06
1.16664e-06
1.16655e-06
1.16651e-06
1.16648e-06
1.16654e-06
1.16662e-06
1.1679e-06
1.16809e-06
1.16786e-06
1.16675e-06
1.16804e-06
1.16811e-06
1.15315e-06
1.15303e-06
1.15292e-06
1.15145e-06
1.15136e-06
1.15132e-06
1.15142e-06
1.15285e-06
1.15303e-06
1.15292e-06
1.15098e-06
1.14852e-06
1.14852e-06
1.14852e-06
1.14852e-06
1.15106e-06
1.15167e-06
1.15145e-06
1.14852e-06
1.14852e-06
1.14852e-06
1.14852e-06
1.14852e-06
1.14852e-06
1.15158e-06
1.15312e-06
1.15315e-06
1.15136e-06
1.14852e-06
1.14852e-06
1.14852e-06
1.14852e-06
1.14852e-06
1.14852e-06
1.15154e-06
1.15289e-06
1.15303e-06
1.15132e-06
1.14852e-06
1.14852e-06
1.14852e-06
1.14852e-06
1.14852e-06
1.14852e-06
1.15151e-06
1.15178e-06
1.15142e-06
1.14852e-06
1.14852e-06
1.14852e-06
1.14852e-06
1.14852e-06
1.14852e-06
1.15156e-06
1.15307e-06
1.15285e-06
1.15106e-06
1.14852e-06
1.14852e-06
1.14852e-06
1.14852e-06
1.15118e-06
1.15165e-06
1.15314e-06
1.15303e-06
1.15167e-06
1.15158e-06
1.15154e-06
1.15151e-06
1.15156e-06
1.15165e-06
1.15293e-06
1.15312e-06
1.15289e-06
1.15178e-06
1.15307e-06
1.15314e-06
1.13818e-06
1.13806e-06
1.13795e-06
1.13648e-06
1.13639e-06
1.13634e-06
1.13644e-06
1.13788e-06
1.13805e-06
1.13795e-06
1.13601e-06
1.13355e-06
1.13355e-06
1.13355e-06
1.13355e-06
1.13609e-06
1.1367e-06
1.13648e-06
1.13355e-06
1.13355e-06
1.13355e-06
1.13355e-06
1.13355e-06
1.13355e-06
1.13661e-06
1.13815e-06
1.13818e-06
1.13639e-06
1.13355e-06
1.13355e-06
1.13355e-06
1.13355e-06
1.13355e-06
1.13355e-06
1.13657e-06
1.13792e-06
1.13806e-06
1.13634e-06
1.13355e-06
1.13355e-06
1.13355e-06
1.13355e-06
1.13355e-06
1.13355e-06
1.13654e-06
1.13681e-06
1.13644e-06
1.13355e-06
1.13355e-06
1.13355e-06
1.13355e-06
1.13355e-06
1.13355e-06
1.13659e-06
1.13809e-06
1.13788e-06
1.13609e-06
1.13355e-06
1.13355e-06
1.13355e-06
1.13355e-06
1.13621e-06
1.13668e-06
1.13817e-06
1.13805e-06
1.1367e-06
1.13661e-06
1.13657e-06
1.13654e-06
1.13659e-06
1.13668e-06
1.13796e-06
1.13815e-06
1.13792e-06
1.13681e-06
1.13809e-06
1.13817e-06
1.12321e-06
1.12309e-06
1.12298e-06
1.1215e-06
1.12141e-06
1.12137e-06
1.12147e-06
1.12291e-06
1.12308e-06
1.12298e-06
1.12103e-06
1.11857e-06
1.11857e-06
1.11857e-06
1.11857e-06
1.12111e-06
1.12172e-06
1.1215e-06
1.11857e-06
1.11857e-06
1.11857e-06
1.11857e-06
1.11857e-06
1.11857e-06
1.12164e-06
1.12317e-06
1.12321e-06
1.12141e-06
1.11857e-06
1.11857e-06
1.11857e-06
1.11857e-06
1.11857e-06
1.11857e-06
1.12159e-06
1.12295e-06
1.12309e-06
1.12137e-06
1.11857e-06
1.11857e-06
1.11857e-06
1.11857e-06
1.11857e-06
1.11857e-06
1.12156e-06
1.12183e-06
1.12147e-06
1.11857e-06
1.11857e-06
1.11857e-06
1.11857e-06
1.11857e-06
1.11857e-06
1.12162e-06
1.12312e-06
1.12291e-06
1.12111e-06
1.11857e-06
1.11857e-06
1.11857e-06
1.11857e-06
1.12124e-06
1.12171e-06
1.12319e-06
1.12308e-06
1.12172e-06
1.12164e-06
1.12159e-06
1.12157e-06
1.12162e-06
1.12171e-06
1.12298e-06
1.12317e-06
1.12295e-06
1.12184e-06
1.12312e-06
1.12319e-06
1.10823e-06
1.10812e-06
1.10801e-06
1.10653e-06
1.10644e-06
1.1064e-06
1.1065e-06
1.10793e-06
1.10811e-06
1.10801e-06
1.10606e-06
1.1036e-06
1.1036e-06
1.1036e-06
1.1036e-06
1.10614e-06
1.10675e-06
1.10653e-06
1.1036e-06
1.1036e-06
1.1036e-06
1.1036e-06
1.1036e-06
1.1036e-06
1.10666e-06
1.1082e-06
1.10823e-06
1.10644e-06
1.1036e-06
1.1036e-06
1.1036e-06
1.1036e-06
1.1036e-06
1.1036e-06
1.10662e-06
1.10797e-06
1.10812e-06
1.1064e-06
1.1036e-06
1.1036e-06
1.1036e-06
1.1036e-06
1.1036e-06
1.1036e-06
1.10659e-06
1.10686e-06
1.1065e-06
1.1036e-06
1.1036e-06
1.1036e-06
1.1036e-06
1.1036e-06
1.1036e-06
1.10665e-06
1.10815e-06
1.10793e-06
1.10614e-06
1.1036e-06
1.1036e-06
1.1036e-06
1.1036e-06
1.10626e-06
1.10674e-06
1.10822e-06
1.10811e-06
1.10675e-06
1.10666e-06
1.10662e-06
1.10659e-06
1.10665e-06
1.10674e-06
1.10801e-06
1.1082e-06
1.10798e-06
1.10686e-06
1.10815e-06
1.10822e-06
1.09326e-06
1.09315e-06
1.09303e-06
1.09156e-06
1.09147e-06
1.09143e-06
1.09153e-06
1.09296e-06
1.09314e-06
1.09303e-06
1.09109e-06
1.08863e-06
1.08863e-06
1.08863e-06
1.08863e-06
1.09117e-06
1.09178e-06
1.09156e-06
1.08863e-06
1.08863e-06
1.08863e-06
1.08863e-06
1.08863e-06
1.08863e-06
1.09169e-06
1.09323e-06
1.09326e-06
1.09147e-06
1.08863e-06
1.08863e-06
1.08863e-06
1.08863e-06
1.08863e-06
1.08863e-06
1.09165e-06
1.093e-06
1.09315e-06
1.09143e-06
1.08863e-06
1.08863e-06
1.08863e-06
1.08863e-06
1.08863e-06
1.08863e-06
1.09162e-06
1.09189e-06
1.09153e-06
1.08863e-06
1.08863e-06
1.08863e-06
1.08863e-06
1.08863e-06
1.08863e-06
1.09168e-06
1.09318e-06
1.09296e-06
1.09117e-06
1.08863e-06
1.08863e-06
1.08863e-06
1.08863e-06
1.09129e-06
1.09176e-06
1.09325e-06
1.09314e-06
1.09178e-06
1.09169e-06
1.09165e-06
1.09162e-06
1.09167e-06
1.09176e-06
1.09304e-06
1.09323e-06
1.093e-06
1.09189e-06
1.09318e-06
1.09325e-06
1.07829e-06
1.07817e-06
1.07806e-06
1.07659e-06
1.0765e-06
1.07645e-06
1.07655e-06
1.07799e-06
1.07816e-06
1.07806e-06
1.07612e-06
1.07366e-06
1.07366e-06
1.07366e-06
1.07366e-06
1.0762e-06
1.07681e-06
1.07659e-06
1.07366e-06
1.07366e-06
1.07366e-06
1.07366e-06
1.07366e-06
1.07366e-06
1.07672e-06
1.07826e-06
1.07829e-06
1.0765e-06
1.07366e-06
1.07366e-06
1.07366e-06
1.07366e-06
1.07366e-06
1.07366e-06
1.07668e-06
1.07803e-06
1.07817e-06
1.07645e-06
1.07366e-06
1.07366e-06
1.07366e-06
1.07366e-06
1.07366e-06
1.07366e-06
1.07665e-06
1.07692e-06
1.07655e-06
1.07366e-06
1.07366e-06
1.07366e-06
1.07366e-06
1.07366e-06
1.07366e-06
1.0767e-06
1.0782e-06
1.07799e-06
1.0762e-06
1.07366e-06
1.07366e-06
1.07366e-06
1.07366e-06
1.07632e-06
1.07679e-06
1.07828e-06
1.07816e-06
1.07681e-06
1.07672e-06
1.07668e-06
1.07665e-06
1.0767e-06
1.07679e-06
1.07807e-06
1.07826e-06
1.07803e-06
1.07692e-06
1.0782e-06
1.07828e-06
1.06332e-06
1.0632e-06
1.06309e-06
1.06161e-06
1.06152e-06
1.06148e-06
1.06158e-06
1.06302e-06
1.06319e-06
1.06309e-06
1.06114e-06
1.05868e-06
1.05868e-06
1.05868e-06
1.05868e-06
1.06122e-06
1.06183e-06
1.06161e-06
1.05868e-06
1.05868e-06
1.05868e-06
1.05868e-06
1.05868e-06
1.05868e-06
1.06174e-06
1.06328e-06
1.06332e-06
1.06152e-06
1.05868e-06
1.05868e-06
1.05868e-06
1.05868e-06
1.05868e-06
1.05868e-06
1.0617e-06
1.06306e-06
1.0632e-06
1.06148e-06
1.05868e-06
1.05868e-06
1.05868e-06
1.05868e-06
1.05868e-06
1.05868e-06
1.06167e-06
1.06194e-06
1.06158e-06
1.05868e-06
1.05868e-06
1.05868e-06
1.05868e-06
1.05868e-06
1.05868e-06
1.06173e-06
1.06323e-06
1.06302e-06
1.06122e-06
1.05868e-06
1.05868e-06
1.05868e-06
1.05868e-06
1.06135e-06
1.06182e-06
1.0633e-06
1.06319e-06
1.06183e-06
1.06174e-06
1.0617e-06
1.06167e-06
1.06173e-06
1.06182e-06
1.06309e-06
1.06328e-06
1.06305e-06
1.06195e-06
1.06323e-06
1.0633e-06
1.04834e-06
1.04823e-06
1.04811e-06
1.04664e-06
1.04655e-06
1.04651e-06
1.04661e-06
1.04804e-06
1.04822e-06
1.04811e-06
1.04617e-06
1.04371e-06
1.04371e-06
1.04371e-06
1.04371e-06
1.04625e-06
1.04686e-06
1.04664e-06
1.04371e-06
1.04371e-06
1.04371e-06
1.04371e-06
1.04371e-06
1.04371e-06
1.04677e-06
1.04831e-06
1.04834e-06
1.04655e-06
1.04371e-06
1.04371e-06
1.04371e-06
1.04371e-06
1.04371e-06
1.04371e-06
1.04673e-06
1.04808e-06
1.04823e-06
1.04651e-06
1.04371e-06
1.04371e-06
1.04371e-06
1.04371e-06
1.04371e-06
1.04371e-06
1.0467e-06
1.04697e-06
1.04661e-06
1.04371e-06
1.04371e-06
1.04371e-06
1.04371e-06
1.04371e-06
1.04371e-06
1.04676e-06
1.04826e-06
1.04804e-06
1.04625e-06
1.04371e-06
1.04371e-06
1.04371e-06
1.04371e-06
1.04637e-06
1.04684e-06
1.04833e-06
1.04822e-06
1.04686e-06
1.04677e-06
1.04673e-06
1.0467e-06
1.04676e-06
1.04684e-06
1.04812e-06
1.04831e-06
1.04808e-06
1.04697e-06
1.04826e-06
1.04833e-06
1.03337e-06
1.03325e-06
1.03314e-06
1.03167e-06
1.03158e-06
1.03153e-06
1.03163e-06
1.03307e-06
1.03324e-06
1.03314e-06
1.0312e-06
1.02874e-06
1.02874e-06
1.02874e-06
1.02874e-06
1.03128e-06
1.03189e-06
1.03167e-06
1.02874e-06
1.02874e-06
1.02874e-06
1.02874e-06
1.02874e-06
1.02874e-06
1.0318e-06
1.03334e-06
1.03337e-06
1.03158e-06
1.02874e-06
1.02874e-06
1.02874e-06
1.02874e-06
1.02874e-06
1.02874e-06
1.03176e-06
1.03311e-06
1.03325e-06
1.03153e-06
1.02874e-06
1.02874e-06
1.02874e-06
1.02874e-06
1.02874e-06
1.02874e-06
1.03173e-06
1.032e-06
1.03163e-06
1.02874e-06
1.02874e-06
1.02874e-06
1.02874e-06
1.02874e-06
1.02874e-06
1.03178e-06
1.03328e-06
1.03307e-06
1.03128e-06
1.02874e-06
1.02874e-06
1.02874e-06
1.02874e-06
1.0314e-06
1.03187e-06
1.03336e-06
1.03324e-06
1.03189e-06
1.0318e-06
1.03176e-06
1.03173e-06
1.03178e-06
1.03187e-06
1.03315e-06
1.03334e-06
1.03311e-06
1.032e-06
1.03328e-06
1.03336e-06
1.0184e-06
1.01828e-06
1.01817e-06
1.01669e-06
1.0166e-06
1.01656e-06
1.01666e-06
1.0181e-06
1.01827e-06
1.01817e-06
1.01622e-06
1.01376e-06
1.01376e-06
1.01376e-06
1.01376e-06
1.0163e-06
1.01691e-06
1.01669e-06
1.01376e-06
1.01376e-06
1.01376e-06
1.01376e-06
1.01376e-06
1.01376e-06
1.01682e-06
1.01836e-06
1.01839e-06
1.0166e-06
1.01376e-06
1.01376e-06
1.01376e-06
1.01376e-06
1.01376e-06
1.01376e-06
1.01678e-06
1.01814e-06
1.01828e-06
1.01656e-06
1.01376e-06
1.01376e-06
1.01376e-06
1.01376e-06
1.01376e-06
1.01376e-06
1.01675e-06
1.01702e-06
1.01666e-06
1.01376e-06
1.01376e-06
1.01376e-06
1.01376e-06
1.01376e-06
1.01376e-06
1.01681e-06
1.01831e-06
1.0181e-06
1.0163e-06
1.01376e-06
1.01376e-06
1.01376e-06
1.01376e-06
1.01643e-06
1.0169e-06
1.01838e-06
1.01827e-06
1.01691e-06
1.01682e-06
1.01678e-06
1.01675e-06
1.01681e-06
1.0169e-06
1.01817e-06
1.01836e-06
1.01814e-06
1.01702e-06
1.01831e-06
1.01838e-06
1.00342e-06
1.00331e-06
1.00319e-06
1.00172e-06
1.00163e-06
1.00159e-06
1.00169e-06
1.00312e-06
1.0033e-06
1.00319e-06
1.00125e-06
9.9879e-07
9.9879e-07
9.9879e-07
9.9879e-07
1.00133e-06
1.00194e-06
1.00172e-06
9.9879e-07
9.9879e-07
9.9879e-07
9.9879e-07
9.9879e-07
9.9879e-07
1.00185e-06
1.00339e-06
1.00342e-06
1.00163e-06
9.9879e-07
9.9879e-07
9.9879e-07
9.9879e-07
9.9879e-07
9.9879e-07
1.00181e-06
1.00316e-06
1.0033e-06
1.00159e-06
9.9879e-07
9.9879e-07
9.9879e-07
9.9879e-07
9.9879e-07
9.9879e-07
1.00178e-06
1.00205e-06
1.00169e-06
9.9879e-07
9.9879e-07
9.9879e-07
9.9879e-07
9.9879e-07
9.9879e-07
1.00184e-06
1.00334e-06
1.00312e-06
1.00133e-06
9.9879e-07
9.9879e-07
9.9879e-07
9.9879e-07
1.00145e-06
1.00192e-06
1.00341e-06
1.0033e-06
1.00194e-06
1.00185e-06
1.00181e-06
1.00178e-06
1.00184e-06
1.00192e-06
1.0032e-06
1.00339e-06
1.00316e-06
1.00205e-06
1.00334e-06
1.00341e-06
9.88449e-07
9.88333e-07
9.88222e-07
9.86746e-07
9.86657e-07
9.86614e-07
9.86714e-07
9.88149e-07
9.88325e-07
9.88221e-07
9.86277e-07
9.83817e-07
9.83817e-07
9.83817e-07
9.83817e-07
9.86357e-07
9.86966e-07
9.86746e-07
9.83817e-07
9.83817e-07
9.83817e-07
9.83817e-07
9.83817e-07
9.83817e-07
9.86878e-07
9.88417e-07
9.88448e-07
9.86657e-07
9.83817e-07
9.83817e-07
9.83817e-07
9.83817e-07
9.83817e-07
9.83817e-07
9.86836e-07
9.88189e-07
9.88332e-07
9.86614e-07
9.83817e-07
9.83817e-07
9.83817e-07
9.83817e-07
9.83817e-07
9.83817e-07
9.86807e-07
9.87077e-07
9.86715e-07
9.83817e-07
9.83817e-07
9.83817e-07
9.83817e-07
9.83817e-07
9.83817e-07
9.86863e-07
9.88365e-07
9.88149e-07
9.86357e-07
9.83817e-07
9.83817e-07
9.83817e-07
9.83817e-07
9.86479e-07
9.86951e-07
9.88436e-07
9.88325e-07
9.86966e-07
9.86878e-07
9.86836e-07
9.86807e-07
9.86862e-07
9.86951e-07
9.88227e-07
9.88417e-07
9.88189e-07
9.87077e-07
9.88365e-07
9.88436e-07
9.73476e-07
9.7336e-07
9.73249e-07
9.71773e-07
9.71684e-07
9.71641e-07
9.71741e-07
9.73176e-07
9.73351e-07
9.73248e-07
9.71304e-07
9.68844e-07
9.68844e-07
9.68844e-07
9.68844e-07
9.71384e-07
9.71992e-07
9.71773e-07
9.68844e-07
9.68844e-07
9.68844e-07
9.68844e-07
9.68844e-07
9.68844e-07
9.71905e-07
9.73444e-07
9.73476e-07
9.71684e-07
9.68844e-07
9.68844e-07
9.68844e-07
9.68844e-07
9.68844e-07
9.68844e-07
9.71863e-07
9.73216e-07
9.7336e-07
9.71641e-07
9.68844e-07
9.68844e-07
9.68844e-07
9.68844e-07
9.68844e-07
9.68844e-07
9.71834e-07
9.72104e-07
9.71741e-07
9.68844e-07
9.68844e-07
9.68844e-07
9.68844e-07
9.68844e-07
9.68844e-07
9.71889e-07
9.73392e-07
9.73176e-07
9.71384e-07
9.68844e-07
9.68844e-07
9.68844e-07
9.68844e-07
9.71506e-07
9.71978e-07
9.73463e-07
9.73351e-07
9.71993e-07
9.71905e-07
9.71863e-07
9.71834e-07
9.71889e-07
9.71978e-07
9.73254e-07
9.73444e-07
9.73216e-07
9.72104e-07
9.73392e-07
9.73463e-07
9.58502e-07
9.58387e-07
9.58275e-07
9.568e-07
9.5671e-07
9.56668e-07
9.56768e-07
9.58203e-07
9.58378e-07
9.58275e-07
9.56331e-07
9.53871e-07
9.53871e-07
9.53871e-07
9.53871e-07
9.56411e-07
9.57019e-07
9.568e-07
9.53871e-07
9.53871e-07
9.53871e-07
9.53871e-07
9.53871e-07
9.53871e-07
9.56932e-07
9.58471e-07
9.58502e-07
9.5671e-07
9.53871e-07
9.53871e-07
9.53871e-07
9.53871e-07
9.53871e-07
9.53871e-07
9.5689e-07
9.58243e-07
9.58386e-07
9.56668e-07
9.53871e-07
9.53871e-07
9.53871e-07
9.53871e-07
9.53871e-07
9.53871e-07
9.56861e-07
9.5713e-07
9.56768e-07
9.53871e-07
9.53871e-07
9.53871e-07
9.53871e-07
9.53871e-07
9.53871e-07
9.56916e-07
9.58418e-07
9.58203e-07
9.56411e-07
9.53871e-07
9.53871e-07
9.53871e-07
9.53871e-07
9.56533e-07
9.57004e-07
9.58489e-07
9.58378e-07
9.57019e-07
9.56932e-07