/*--------------------------------*- C++ -*----------------------------------*\
| =========                 |                                                 |
| \\      /  F ield         | OpenFOAM: The Open Source CFD Toolbox           |
|  \\    /   O peration     | Version:  v2012                                 |
|   \\  /    A nd           | Website:  www.openfoam.com                      |
|    \\/     M anipulation  |                                                 |
\*---------------------------------------------------------------------------*/
FoamFile
{
    version     2.0;
    format      ascii;
    class       volScalarField;
    location    "16";
    object      p;
}
// * * * * * * * * * * * * * * * * * * * * * * * * * * * * * * * * * * * * * //

dimensions      [0 2 -2 0 0 0 0];


internalField   nonuniform List<scalar> 
244288
(
1.45886e-06
1.45895e-06
1.45892e-06
1.45884e-06
1.45879e-06
1.45885e-06
1.45893e-06
1.45895e-06
1.45899e-06
1.45877e-06
1.45852e-06
1.45843e-06
1.45854e-06
1.4588e-06
1.459e-06
1.45892e-06
1.45877e-06
1.45837e-06
1.45803e-06
1.45791e-06
1.45806e-06
1.45842e-06
1.45881e-06
1.45891e-06
1.45884e-06
1.45852e-06
1.45803e-06
1.45765e-06
1.45752e-06
1.45769e-06
1.45809e-06
1.45858e-06
1.45885e-06
1.45886e-06
1.45879e-06
1.45843e-06
1.45791e-06
1.45752e-06
1.45739e-06
1.45756e-06
1.45798e-06
1.45849e-06
1.45881e-06
1.45885e-06
1.45854e-06
1.45806e-06
1.45769e-06
1.45756e-06
1.45772e-06
1.45812e-06
1.4586e-06
1.45886e-06
1.45893e-06
1.4588e-06
1.45842e-06
1.45809e-06
1.45798e-06
1.45812e-06
1.45847e-06
1.45884e-06
1.45892e-06
1.459e-06
1.45881e-06
1.45858e-06
1.45849e-06
1.4586e-06
1.45884e-06
1.459e-06
1.45891e-06
1.45885e-06
1.45881e-06
1.45886e-06
1.45892e-06
1.43706e-06
1.43672e-06
1.43656e-06
1.43516e-06
1.43506e-06
1.43506e-06
1.43509e-06
1.43651e-06
1.43662e-06
1.43656e-06
1.43469e-06
1.43233e-06
1.43233e-06
1.43233e-06
1.43233e-06
1.43477e-06
1.43528e-06
1.43516e-06
1.43233e-06
1.43228e-06
1.43232e-06
1.43232e-06
1.43228e-06
1.43233e-06
1.43521e-06
1.43677e-06
1.43706e-06
1.43506e-06
1.43233e-06
1.43232e-06
1.43237e-06
1.43237e-06
1.43232e-06
1.43233e-06
1.43515e-06
1.43652e-06
1.43672e-06
1.43506e-06
1.43233e-06
1.43232e-06
1.43237e-06
1.43237e-06
1.43232e-06
1.43233e-06
1.43511e-06
1.43538e-06
1.43508e-06
1.43233e-06
1.43228e-06
1.43232e-06
1.43232e-06
1.43228e-06
1.43233e-06
1.43518e-06
1.43667e-06
1.43651e-06
1.43477e-06
1.43233e-06
1.43233e-06
1.43233e-06
1.43233e-06
1.43477e-06
1.43529e-06
1.43678e-06
1.43663e-06
1.43528e-06
1.43521e-06
1.43515e-06
1.43511e-06
1.43518e-06
1.43529e-06
1.43649e-06
1.43677e-06
1.43652e-06
1.43538e-06
1.43667e-06
1.43678e-06
1.42173e-06
1.4216e-06
1.42151e-06
1.42001e-06
1.41992e-06
1.41989e-06
1.41997e-06
1.42142e-06
1.42161e-06
1.42151e-06
1.41955e-06
1.41703e-06
1.41703e-06
1.41703e-06
1.41703e-06
1.41962e-06
1.42021e-06
1.42001e-06
1.41703e-06
1.417e-06
1.41701e-06
1.41701e-06
1.417e-06
1.41703e-06
1.42011e-06
1.42168e-06
1.42172e-06
1.41992e-06
1.41703e-06
1.41701e-06
1.41702e-06
1.41702e-06
1.41701e-06
1.41703e-06
1.42005e-06
1.42144e-06
1.4216e-06
1.41989e-06
1.41703e-06
1.41701e-06
1.41702e-06
1.41702e-06
1.41701e-06
1.41703e-06
1.42002e-06
1.4203e-06
1.41997e-06
1.41703e-06
1.417e-06
1.41701e-06
1.41701e-06
1.417e-06
1.41703e-06
1.42008e-06
1.42161e-06
1.42142e-06
1.41962e-06
1.41703e-06
1.41703e-06
1.41703e-06
1.41703e-06
1.41967e-06
1.42018e-06
1.42171e-06
1.42161e-06
1.42021e-06
1.42011e-06
1.42005e-06
1.42002e-06
1.42008e-06
1.42018e-06
1.42148e-06
1.42168e-06
1.42144e-06
1.4203e-06
1.42161e-06
1.42171e-06
1.40647e-06
1.40635e-06
1.40625e-06
1.40474e-06
1.40465e-06
1.40461e-06
1.4047e-06
1.40616e-06
1.40635e-06
1.40625e-06
1.40427e-06
1.40174e-06
1.40174e-06
1.40174e-06
1.40174e-06
1.40434e-06
1.40494e-06
1.40474e-06
1.40174e-06
1.40173e-06
1.40174e-06
1.40174e-06
1.40173e-06
1.40174e-06
1.40484e-06
1.40643e-06
1.40647e-06
1.40465e-06
1.40174e-06
1.40174e-06
1.40174e-06
1.40174e-06
1.40174e-06
1.40174e-06
1.40479e-06
1.40619e-06
1.40635e-06
1.40461e-06
1.40174e-06
1.40174e-06
1.40174e-06
1.40174e-06
1.40174e-06
1.40174e-06
1.40476e-06
1.40505e-06
1.4047e-06
1.40174e-06
1.40173e-06
1.40174e-06
1.40174e-06
1.40173e-06
1.40174e-06
1.40482e-06
1.40636e-06
1.40616e-06
1.40434e-06
1.40174e-06
1.40174e-06
1.40174e-06
1.40174e-06
1.40442e-06
1.40492e-06
1.40645e-06
1.40635e-06
1.40494e-06
1.40484e-06
1.40479e-06
1.40476e-06
1.40482e-06
1.40492e-06
1.40623e-06
1.40643e-06
1.40619e-06
1.40505e-06
1.40636e-06
1.40645e-06
1.3912e-06
1.39108e-06
1.39097e-06
1.38946e-06
1.38937e-06
1.38933e-06
1.38942e-06
1.39089e-06
1.39107e-06
1.39097e-06
1.38899e-06
1.38646e-06
1.38646e-06
1.38646e-06
1.38646e-06
1.38905e-06
1.38967e-06
1.38946e-06
1.38646e-06
1.38646e-06
1.38646e-06
1.38646e-06
1.38646e-06
1.38646e-06
1.38957e-06
1.39115e-06
1.3912e-06
1.38937e-06
1.38646e-06
1.38646e-06
1.38646e-06
1.38646e-06
1.38646e-06
1.38646e-06
1.38952e-06
1.39092e-06
1.39108e-06
1.38933e-06
1.38646e-06
1.38646e-06
1.38646e-06
1.38646e-06
1.38646e-06
1.38646e-06
1.38949e-06
1.38978e-06
1.38942e-06
1.38646e-06
1.38646e-06
1.38646e-06
1.38646e-06
1.38646e-06
1.38646e-06
1.38955e-06
1.39109e-06
1.39089e-06
1.38905e-06
1.38646e-06
1.38646e-06
1.38646e-06
1.38646e-06
1.38915e-06
1.38965e-06
1.39118e-06
1.39107e-06
1.38967e-06
1.38957e-06
1.38952e-06
1.38949e-06
1.38955e-06
1.38965e-06
1.39095e-06
1.39115e-06
1.39092e-06
1.38978e-06
1.39109e-06
1.39118e-06
1.37592e-06
1.3758e-06
1.37569e-06
1.37418e-06
1.37409e-06
1.37405e-06
1.37415e-06
1.37561e-06
1.3758e-06
1.37569e-06
1.37371e-06
1.37118e-06
1.37118e-06
1.37118e-06
1.37118e-06
1.37378e-06
1.37439e-06
1.37418e-06
1.37118e-06
1.37118e-06
1.37118e-06
1.37118e-06
1.37118e-06
1.37118e-06
1.37429e-06
1.37588e-06
1.37593e-06
1.37409e-06
1.37118e-06
1.37118e-06
1.37118e-06
1.37118e-06
1.37118e-06
1.37118e-06
1.37425e-06
1.37564e-06
1.3758e-06
1.37405e-06
1.37118e-06
1.37118e-06
1.37118e-06
1.37118e-06
1.37118e-06
1.37118e-06
1.37422e-06
1.37451e-06
1.37415e-06
1.37118e-06
1.37118e-06
1.37118e-06
1.37118e-06
1.37118e-06
1.37118e-06
1.37427e-06
1.37582e-06
1.37561e-06
1.37378e-06
1.37118e-06
1.37118e-06
1.37118e-06
1.37118e-06
1.37387e-06
1.37437e-06
1.3759e-06
1.3758e-06
1.37439e-06
1.37429e-06
1.37425e-06
1.37422e-06
1.37427e-06
1.37437e-06
1.37568e-06
1.37588e-06
1.37564e-06
1.37451e-06
1.37582e-06
1.3759e-06
1.36065e-06
1.36053e-06
1.36042e-06
1.35891e-06
1.35881e-06
1.35877e-06
1.35887e-06
1.36034e-06
1.36052e-06
1.36042e-06
1.35844e-06
1.3559e-06
1.3559e-06
1.3559e-06
1.3559e-06
1.3585e-06
1.35912e-06
1.35891e-06
1.3559e-06
1.3559e-06
1.3559e-06
1.3559e-06
1.3559e-06
1.3559e-06
1.35902e-06
1.3606e-06
1.36065e-06
1.35881e-06
1.3559e-06
1.3559e-06
1.3559e-06
1.3559e-06
1.3559e-06
1.3559e-06
1.35897e-06
1.36037e-06
1.36053e-06
1.35877e-06
1.3559e-06
1.3559e-06
1.3559e-06
1.3559e-06
1.3559e-06
1.3559e-06
1.35894e-06
1.35923e-06
1.35887e-06
1.3559e-06
1.3559e-06
1.3559e-06
1.3559e-06
1.3559e-06
1.3559e-06
1.359e-06
1.36054e-06
1.36034e-06
1.3585e-06
1.3559e-06
1.3559e-06
1.3559e-06
1.3559e-06
1.3586e-06
1.3591e-06
1.36062e-06
1.36052e-06
1.35912e-06
1.35902e-06
1.35897e-06
1.35894e-06
1.359e-06
1.3591e-06
1.3604e-06
1.3606e-06
1.36037e-06
1.35923e-06
1.36054e-06
1.36062e-06
1.34537e-06
1.34525e-06
1.34514e-06
1.34363e-06
1.34354e-06
1.3435e-06
1.3436e-06
1.34506e-06
1.34524e-06
1.34514e-06
1.34316e-06
1.34063e-06
1.34063e-06
1.34063e-06
1.34063e-06
1.34322e-06
1.34384e-06
1.34363e-06
1.34063e-06
1.34063e-06
1.34063e-06
1.34063e-06
1.34063e-06
1.34063e-06
1.34374e-06
1.34533e-06
1.34537e-06
1.34354e-06
1.34063e-06
1.34063e-06
1.34063e-06
1.34063e-06
1.34063e-06
1.34063e-06
1.34369e-06
1.34509e-06
1.34525e-06
1.3435e-06
1.34063e-06
1.34063e-06
1.34063e-06
1.34063e-06
1.34063e-06
1.34063e-06
1.34366e-06
1.34395e-06
1.3436e-06
1.34063e-06
1.34063e-06
1.34063e-06
1.34063e-06
1.34063e-06
1.34063e-06
1.34372e-06
1.34526e-06
1.34506e-06
1.34322e-06
1.34063e-06
1.34063e-06
1.34063e-06
1.34063e-06
1.34332e-06
1.34382e-06
1.34535e-06
1.34524e-06
1.34384e-06
1.34374e-06
1.34369e-06
1.34366e-06
1.34372e-06
1.34382e-06
1.34513e-06
1.34533e-06
1.34509e-06
1.34395e-06
1.34526e-06
1.34535e-06
1.3301e-06
1.32997e-06
1.32987e-06
1.32835e-06
1.32826e-06
1.32822e-06
1.32832e-06
1.32978e-06
1.32997e-06
1.32987e-06
1.32788e-06
1.32535e-06
1.32535e-06
1.32535e-06
1.32535e-06
1.32795e-06
1.32856e-06
1.32835e-06
1.32535e-06
1.32535e-06
1.32535e-06
1.32535e-06
1.32535e-06
1.32535e-06
1.32846e-06
1.33005e-06
1.33009e-06
1.32826e-06
1.32535e-06
1.32535e-06
1.32535e-06
1.32535e-06
1.32535e-06
1.32535e-06
1.32842e-06
1.32981e-06
1.32997e-06
1.32822e-06
1.32535e-06
1.32535e-06
1.32535e-06
1.32535e-06
1.32535e-06
1.32535e-06
1.32839e-06
1.32868e-06
1.32832e-06
1.32535e-06
1.32535e-06
1.32535e-06
1.32535e-06
1.32535e-06
1.32535e-06
1.32844e-06
1.32999e-06
1.32978e-06
1.32795e-06
1.32535e-06
1.32535e-06
1.32535e-06
1.32535e-06
1.32804e-06
1.32854e-06
1.33007e-06
1.32997e-06
1.32856e-06
1.32846e-06
1.32842e-06
1.32839e-06
1.32844e-06
1.32854e-06
1.32985e-06
1.33005e-06
1.32981e-06
1.32868e-06
1.32999e-06
1.33007e-06
1.31482e-06
1.3147e-06
1.31459e-06
1.31308e-06
1.31298e-06
1.31294e-06
1.31304e-06
1.31451e-06
1.31469e-06
1.31459e-06
1.31261e-06
1.31007e-06
1.31007e-06
1.31007e-06
1.31007e-06
1.31267e-06
1.31329e-06
1.31307e-06
1.31007e-06
1.31007e-06
1.31007e-06
1.31007e-06
1.31007e-06
1.31007e-06
1.31319e-06
1.31477e-06
1.31482e-06
1.31299e-06
1.31007e-06
1.31007e-06
1.31007e-06
1.31007e-06
1.31007e-06
1.31007e-06
1.31314e-06
1.31454e-06
1.31469e-06
1.31294e-06
1.31007e-06
1.31007e-06
1.31007e-06
1.31007e-06
1.31007e-06
1.31007e-06
1.31311e-06
1.3134e-06
1.31304e-06
1.31007e-06
1.31007e-06
1.31007e-06
1.31007e-06
1.31007e-06
1.31007e-06
1.31317e-06
1.31471e-06
1.31451e-06
1.31267e-06
1.31007e-06
1.31007e-06
1.31007e-06
1.31007e-06
1.31277e-06
1.31327e-06
1.3148e-06
1.31469e-06
1.31329e-06
1.31319e-06
1.31314e-06
1.31311e-06
1.31317e-06
1.31327e-06
1.31457e-06
1.31477e-06
1.31454e-06
1.3134e-06
1.31471e-06
1.3148e-06
1.29954e-06
1.29942e-06
1.29931e-06
1.2978e-06
1.29771e-06
1.29767e-06
1.29776e-06
1.29923e-06
1.29941e-06
1.29931e-06
1.29733e-06
1.2948e-06
1.2948e-06
1.2948e-06
1.2948e-06
1.29739e-06
1.29801e-06
1.2978e-06
1.2948e-06
1.2948e-06
1.2948e-06
1.2948e-06
1.2948e-06
1.2948e-06
1.29791e-06
1.2995e-06
1.29954e-06
1.29771e-06
1.2948e-06
1.2948e-06
1.2948e-06
1.2948e-06
1.2948e-06
1.2948e-06
1.29786e-06
1.29926e-06
1.29942e-06
1.29767e-06
1.2948e-06
1.2948e-06
1.2948e-06
1.2948e-06
1.2948e-06
1.2948e-06
1.29783e-06
1.29812e-06
1.29776e-06
1.2948e-06
1.2948e-06
1.2948e-06
1.2948e-06
1.2948e-06
1.2948e-06
1.29789e-06
1.29943e-06
1.29923e-06
1.29739e-06
1.2948e-06
1.2948e-06
1.2948e-06
1.2948e-06
1.29749e-06
1.29799e-06
1.29952e-06
1.29941e-06
1.29801e-06
1.29791e-06
1.29786e-06
1.29783e-06
1.29789e-06
1.29799e-06
1.2993e-06
1.2995e-06
1.29926e-06
1.29812e-06
1.29943e-06
1.29952e-06
1.28426e-06
1.28414e-06
1.28403e-06
1.28252e-06
1.28243e-06
1.28239e-06
1.28249e-06
1.28395e-06
1.28414e-06
1.28403e-06
1.28205e-06
1.27952e-06
1.27952e-06
1.27952e-06
1.27952e-06
1.28212e-06
1.28273e-06
1.28252e-06
1.27952e-06
1.27952e-06
1.27952e-06
1.27952e-06
1.27952e-06
1.27952e-06
1.28263e-06
1.28422e-06
1.28426e-06
1.28243e-06
1.27952e-06
1.27952e-06
1.27952e-06
1.27952e-06
1.27952e-06
1.27952e-06
1.28259e-06
1.28398e-06
1.28414e-06
1.28239e-06
1.27952e-06
1.27952e-06
1.27952e-06
1.27952e-06
1.27952e-06
1.27952e-06
1.28256e-06
1.28285e-06
1.28249e-06
1.27952e-06
1.27952e-06
1.27952e-06
1.27952e-06
1.27952e-06
1.27952e-06
1.28261e-06
1.28416e-06
1.28395e-06
1.28212e-06
1.27952e-06
1.27952e-06
1.27952e-06
1.27952e-06
1.28221e-06
1.28271e-06
1.28424e-06
1.28414e-06
1.28273e-06
1.28263e-06
1.28259e-06
1.28256e-06
1.28261e-06
1.28271e-06
1.28402e-06
1.28422e-06
1.28398e-06
1.28285e-06
1.28416e-06
1.28424e-06
1.26899e-06
1.26887e-06
1.26876e-06
1.26724e-06
1.26715e-06
1.26711e-06
1.26721e-06
1.26868e-06
1.26886e-06
1.26876e-06
1.26677e-06
1.26424e-06
1.26424e-06
1.26424e-06
1.26424e-06
1.26684e-06
1.26746e-06
1.26724e-06
1.26424e-06
1.26424e-06
1.26424e-06
1.26424e-06
1.26424e-06
1.26424e-06
1.26736e-06
1.26894e-06
1.26899e-06
1.26715e-06
1.26424e-06
1.26424e-06
1.26424e-06
1.26424e-06
1.26424e-06
1.26424e-06
1.26731e-06
1.26871e-06
1.26887e-06
1.26711e-06
1.26424e-06
1.26424e-06
1.26424e-06
1.26424e-06
1.26424e-06
1.26424e-06
1.26728e-06
1.26757e-06
1.26721e-06
1.26424e-06
1.26424e-06
1.26424e-06
1.26424e-06
1.26424e-06
1.26424e-06
1.26734e-06
1.26888e-06
1.26868e-06
1.26684e-06
1.26424e-06
1.26424e-06
1.26424e-06
1.26424e-06
1.26694e-06
1.26744e-06
1.26896e-06
1.26886e-06
1.26746e-06
1.26736e-06
1.26731e-06
1.26728e-06
1.26734e-06
1.26744e-06
1.26874e-06
1.26894e-06
1.26871e-06
1.26757e-06
1.26888e-06
1.26896e-06
1.25371e-06
1.25359e-06
1.25348e-06
1.25197e-06
1.25188e-06
1.25183e-06
1.25193e-06
1.2534e-06
1.25358e-06
1.25348e-06
1.2515e-06
1.24897e-06
1.24897e-06
1.24897e-06
1.24897e-06
1.25156e-06
1.25218e-06
1.25197e-06
1.24897e-06
1.24897e-06
1.24897e-06
1.24897e-06
1.24897e-06
1.24897e-06
1.25208e-06
1.25367e-06
1.25371e-06
1.25188e-06
1.24897e-06
1.24897e-06
1.24897e-06
1.24897e-06
1.24897e-06
1.24897e-06
1.25203e-06
1.25343e-06
1.25359e-06
1.25183e-06
1.24897e-06
1.24897e-06
1.24897e-06
1.24897e-06
1.24897e-06
1.24897e-06
1.252e-06
1.25229e-06
1.25193e-06
1.24897e-06
1.24897e-06
1.24897e-06
1.24897e-06
1.24897e-06
1.24897e-06
1.25206e-06
1.2536e-06
1.2534e-06
1.25156e-06
1.24897e-06
1.24897e-06
1.24897e-06
1.24897e-06
1.25166e-06
1.25216e-06
1.25369e-06
1.25358e-06
1.25218e-06
1.25208e-06
1.25203e-06
1.252e-06
1.25206e-06
1.25216e-06
1.25347e-06
1.25367e-06
1.25343e-06
1.25229e-06
1.2536e-06
1.25369e-06
1.23843e-06
1.23831e-06
1.2382e-06
1.23669e-06
1.2366e-06
1.23656e-06
1.23666e-06
1.23812e-06
1.23831e-06
1.2382e-06
1.23622e-06
1.23369e-06
1.23369e-06
1.23369e-06
1.23369e-06
1.23629e-06
1.2369e-06
1.23669e-06
1.23369e-06
1.23369e-06
1.23369e-06
1.23369e-06
1.23369e-06
1.23369e-06
1.2368e-06
1.23839e-06
1.23843e-06
1.2366e-06
1.23369e-06
1.23369e-06
1.23369e-06
1.23369e-06
1.23369e-06
1.23369e-06
1.23676e-06
1.23815e-06
1.23831e-06
1.23656e-06
1.23369e-06
1.23369e-06
1.23369e-06
1.23369e-06
1.23369e-06
1.23369e-06
1.23673e-06
1.23702e-06
1.23666e-06
1.23369e-06
1.23369e-06
1.23369e-06
1.23369e-06
1.23369e-06
1.23369e-06
1.23678e-06
1.23833e-06
1.23812e-06
1.23629e-06
1.23369e-06
1.23369e-06
1.23369e-06
1.23369e-06
1.23638e-06
1.23688e-06
1.23841e-06
1.23831e-06
1.2369e-06
1.2368e-06
1.23676e-06
1.23673e-06
1.23678e-06
1.23688e-06
1.23819e-06
1.23839e-06
1.23815e-06
1.23702e-06
1.23833e-06
1.23841e-06
1.22316e-06
1.22304e-06
1.22293e-06
1.22141e-06
1.22132e-06
1.22128e-06
1.22138e-06
1.22285e-06
1.22303e-06
1.22293e-06
1.22094e-06
1.21841e-06
1.21841e-06
1.21841e-06
1.21841e-06
1.22101e-06
1.22162e-06
1.22141e-06
1.21841e-06
1.21841e-06
1.21841e-06
1.21841e-06
1.21841e-06
1.21841e-06
1.22153e-06
1.22311e-06
1.22316e-06
1.22132e-06
1.21841e-06
1.21841e-06
1.21841e-06
1.21841e-06
1.21841e-06
1.21841e-06
1.22148e-06
1.22288e-06
1.22304e-06
1.22128e-06
1.21841e-06
1.21841e-06
1.21841e-06
1.21841e-06
1.21841e-06
1.21841e-06
1.22145e-06
1.22174e-06
1.22138e-06
1.21841e-06
1.21841e-06
1.21841e-06
1.21841e-06
1.21841e-06
1.21841e-06
1.22151e-06
1.22305e-06
1.22285e-06
1.22101e-06
1.21841e-06
1.21841e-06
1.21841e-06
1.21841e-06
1.22111e-06
1.22161e-06
1.22313e-06
1.22303e-06
1.22162e-06
1.22153e-06
1.22148e-06
1.22145e-06
1.22151e-06
1.22161e-06
1.22291e-06
1.22311e-06
1.22288e-06
1.22174e-06
1.22305e-06
1.22313e-06
1.20788e-06
1.20776e-06
1.20765e-06
1.20614e-06
1.20605e-06
1.206e-06
1.2061e-06
1.20757e-06
1.20775e-06
1.20765e-06
1.20567e-06
1.20314e-06
1.20314e-06
1.20314e-06
1.20314e-06
1.20573e-06
1.20635e-06
1.20614e-06
1.20314e-06
1.20314e-06
1.20314e-06
1.20314e-06
1.20314e-06
1.20314e-06
1.20625e-06
1.20784e-06
1.20788e-06
1.20605e-06
1.20314e-06
1.20314e-06
1.20314e-06
1.20314e-06
1.20314e-06
1.20314e-06
1.2062e-06
1.2076e-06
1.20776e-06
1.206e-06
1.20314e-06
1.20314e-06
1.20314e-06
1.20314e-06
1.20314e-06
1.20314e-06
1.20617e-06
1.20646e-06
1.2061e-06
1.20314e-06
1.20314e-06
1.20314e-06
1.20314e-06
1.20314e-06
1.20314e-06
1.20623e-06
1.20777e-06
1.20757e-06
1.20573e-06
1.20314e-06
1.20314e-06
1.20314e-06
1.20314e-06
1.20583e-06
1.20633e-06
1.20786e-06
1.20775e-06
1.20635e-06
1.20625e-06
1.2062e-06
1.20617e-06
1.20623e-06
1.20633e-06
1.20764e-06
1.20784e-06
1.2076e-06
1.20646e-06
1.20777e-06
1.20786e-06
1.1926e-06
1.19248e-06
1.19237e-06
1.19086e-06
1.19077e-06
1.19073e-06
1.19083e-06
1.19229e-06
1.19248e-06
1.19237e-06
1.19039e-06
1.18786e-06
1.18786e-06
1.18786e-06
1.18786e-06
1.19046e-06
1.19107e-06
1.19086e-06
1.18786e-06
1.18786e-06
1.18786e-06
1.18786e-06
1.18786e-06
1.18786e-06
1.19097e-06
1.19256e-06
1.1926e-06
1.19077e-06
1.18786e-06
1.18786e-06
1.18786e-06
1.18786e-06
1.18786e-06
1.18786e-06
1.19093e-06
1.19232e-06
1.19248e-06
1.19073e-06
1.18786e-06
1.18786e-06
1.18786e-06
1.18786e-06
1.18786e-06
1.18786e-06
1.1909e-06
1.19119e-06
1.19083e-06
1.18786e-06
1.18786e-06
1.18786e-06
1.18786e-06
1.18786e-06
1.18786e-06
1.19095e-06
1.1925e-06
1.19229e-06
1.19046e-06
1.18786e-06
1.18786e-06
1.18786e-06
1.18786e-06
1.19055e-06
1.19105e-06
1.19258e-06
1.19248e-06
1.19107e-06
1.19097e-06
1.19093e-06
1.1909e-06
1.19095e-06
1.19105e-06
1.19236e-06
1.19256e-06
1.19232e-06
1.19118e-06
1.1925e-06
1.19258e-06
1.17733e-06
1.17721e-06
1.1771e-06
1.17558e-06
1.17549e-06
1.17545e-06
1.17555e-06
1.17702e-06
1.1772e-06
1.1771e-06
1.17511e-06
1.17258e-06
1.17258e-06
1.17258e-06
1.17258e-06
1.17518e-06
1.17579e-06
1.17558e-06
1.17258e-06
1.17258e-06
1.17258e-06
1.17258e-06
1.17258e-06
1.17258e-06
1.1757e-06
1.17728e-06
1.17733e-06
1.17549e-06
1.17258e-06
1.17258e-06
1.17258e-06
1.17258e-06
1.17258e-06
1.17258e-06
1.17565e-06
1.17705e-06
1.17721e-06
1.17545e-06
1.17258e-06
1.17258e-06
1.17258e-06
1.17258e-06
1.17258e-06
1.17258e-06
1.17562e-06
1.17591e-06
1.17555e-06
1.17258e-06
1.17258e-06
1.17258e-06
1.17258e-06
1.17258e-06
1.17258e-06
1.17568e-06
1.17722e-06
1.17702e-06
1.17518e-06
1.17258e-06
1.17258e-06
1.17258e-06
1.17258e-06
1.17528e-06
1.17578e-06
1.1773e-06
1.1772e-06
1.1758e-06
1.1757e-06
1.17565e-06
1.17562e-06
1.17568e-06
1.17578e-06
1.17708e-06
1.17728e-06
1.17705e-06
1.17591e-06
1.17722e-06
1.1773e-06
1.16205e-06
1.16193e-06
1.16182e-06
1.16031e-06
1.16022e-06
1.16017e-06
1.16027e-06
1.16174e-06
1.16192e-06
1.16182e-06
1.15984e-06
1.15731e-06
1.15731e-06
1.15731e-06
1.15731e-06
1.1599e-06
1.16052e-06
1.16031e-06
1.15731e-06
1.15731e-06
1.15731e-06
1.15731e-06
1.15731e-06
1.15731e-06
1.16042e-06
1.16201e-06
1.16205e-06
1.16022e-06
1.15731e-06
1.15731e-06
1.15731e-06
1.15731e-06
1.15731e-06
1.15731e-06
1.16037e-06
1.16177e-06
1.16193e-06
1.16017e-06
1.15731e-06
1.15731e-06
1.15731e-06
1.15731e-06
1.15731e-06
1.15731e-06
1.16034e-06
1.16063e-06
1.16027e-06
1.15731e-06
1.15731e-06
1.15731e-06
1.15731e-06
1.15731e-06
1.15731e-06
1.1604e-06
1.16194e-06
1.16174e-06
1.1599e-06
1.15731e-06
1.15731e-06
1.15731e-06
1.15731e-06
1.16e-06
1.1605e-06
1.16203e-06
1.16192e-06
1.16052e-06
1.16042e-06
1.16037e-06
1.16034e-06
1.1604e-06
1.1605e-06
1.16181e-06
1.16201e-06
1.16177e-06
1.16063e-06
1.16194e-06
1.16203e-06
1.14677e-06
1.14665e-06
1.14654e-06
1.14503e-06
1.14494e-06
1.1449e-06
1.145e-06
1.14646e-06
1.14665e-06
1.14654e-06
1.14456e-06
1.14203e-06
1.14203e-06
1.14203e-06
1.14203e-06
1.14463e-06
1.14524e-06
1.14503e-06
1.14203e-06
1.14203e-06
1.14203e-06
1.14203e-06
1.14203e-06
1.14203e-06
1.14514e-06
1.14673e-06
1.14677e-06
1.14494e-06
1.14203e-06
1.14203e-06
1.14203e-06
1.14203e-06
1.14203e-06
1.14203e-06
1.1451e-06
1.14649e-06
1.14665e-06
1.1449e-06
1.14203e-06
1.14203e-06
1.14203e-06
1.14203e-06
1.14203e-06
1.14203e-06
1.14507e-06
1.14536e-06
1.145e-06
1.14203e-06
1.14203e-06
1.14203e-06
1.14203e-06
1.14203e-06
1.14203e-06
1.14512e-06
1.14667e-06
1.14646e-06
1.14463e-06
1.14203e-06
1.14203e-06
1.14203e-06
1.14203e-06
1.14472e-06
1.14522e-06
1.14675e-06
1.14665e-06
1.14524e-06
1.14514e-06
1.14509e-06
1.14507e-06
1.14512e-06
1.14522e-06
1.14653e-06
1.14673e-06
1.14649e-06
1.14536e-06
1.14667e-06
1.14675e-06
1.1315e-06
1.13138e-06
1.13127e-06
1.12975e-06
1.12966e-06
1.12962e-06
1.12972e-06
1.13119e-06
1.13137e-06
1.13127e-06
1.12928e-06
1.12675e-06
1.12675e-06
1.12675e-06
1.12675e-06
1.12935e-06
1.12996e-06
1.12975e-06
1.12675e-06
1.12675e-06
1.12675e-06
1.12675e-06
1.12675e-06
1.12675e-06
1.12987e-06
1.13145e-06
1.1315e-06
1.12966e-06
1.12675e-06
1.12675e-06
1.12675e-06
1.12675e-06
1.12675e-06
1.12675e-06
1.12982e-06
1.13122e-06
1.13138e-06
1.12962e-06
1.12675e-06
1.12675e-06
1.12675e-06
1.12675e-06
1.12675e-06
1.12675e-06
1.12979e-06
1.13008e-06
1.12972e-06
1.12675e-06
1.12675e-06
1.12675e-06
1.12675e-06
1.12675e-06
1.12675e-06
1.12985e-06
1.13139e-06
1.13119e-06
1.12935e-06
1.12675e-06
1.12675e-06
1.12675e-06
1.12675e-06
1.12945e-06
1.12995e-06
1.13147e-06
1.13137e-06
1.12996e-06
1.12987e-06
1.12982e-06
1.12979e-06
1.12985e-06
1.12995e-06
1.13125e-06
1.13145e-06
1.13122e-06
1.13008e-06
1.13139e-06
1.13147e-06
1.11622e-06
1.1161e-06
1.11599e-06
1.11448e-06
1.11439e-06
1.11434e-06
1.11444e-06
1.11591e-06
1.11609e-06
1.11599e-06
1.11401e-06
1.11148e-06
1.11148e-06
1.11148e-06
1.11148e-06
1.11407e-06
1.11469e-06
1.11448e-06
1.11148e-06
1.11148e-06
1.11148e-06
1.11148e-06
1.11148e-06
1.11148e-06
1.11459e-06
1.11617e-06
1.11622e-06
1.11439e-06
1.11148e-06
1.11148e-06
1.11148e-06
1.11148e-06
1.11148e-06
1.11148e-06
1.11454e-06
1.11594e-06
1.1161e-06
1.11434e-06
1.11148e-06
1.11148e-06
1.11148e-06
1.11148e-06
1.11148e-06
1.11148e-06
1.11451e-06
1.1148e-06
1.11444e-06
1.11148e-06
1.11148e-06
1.11148e-06
1.11148e-06
1.11148e-06
1.11148e-06
1.11457e-06
1.11611e-06
1.11591e-06
1.11407e-06
1.11148e-06
1.11148e-06
1.11148e-06
1.11148e-06
1.11417e-06
1.11467e-06
1.1162e-06
1.11609e-06
1.11469e-06
1.11459e-06
1.11454e-06
1.11451e-06
1.11457e-06
1.11467e-06
1.11597e-06
1.11618e-06
1.11594e-06
1.1148e-06
1.11611e-06
1.1162e-06
1.10094e-06
1.10082e-06
1.10071e-06
1.0992e-06
1.09911e-06
1.09907e-06
1.09917e-06
1.10063e-06
1.10082e-06
1.10071e-06
1.09873e-06
1.0962e-06
1.0962e-06
1.0962e-06
1.0962e-06
1.0988e-06
1.09941e-06
1.0992e-06
1.0962e-06
1.0962e-06
1.0962e-06
1.0962e-06
1.0962e-06
1.0962e-06
1.09931e-06
1.1009e-06
1.10094e-06
1.09911e-06
1.0962e-06
1.0962e-06
1.0962e-06
1.0962e-06
1.0962e-06
1.0962e-06
1.09927e-06
1.10066e-06
1.10082e-06
1.09907e-06
1.0962e-06
1.0962e-06
1.0962e-06
1.0962e-06
1.0962e-06
1.0962e-06
1.09924e-06
1.09953e-06
1.09917e-06
1.0962e-06
1.0962e-06
1.0962e-06
1.0962e-06
1.0962e-06
1.0962e-06
1.09929e-06
1.10084e-06
1.10063e-06
1.0988e-06
1.0962e-06
1.0962e-06
1.0962e-06
1.0962e-06
1.09889e-06
1.09939e-06
1.10092e-06
1.10082e-06
1.09941e-06
1.09931e-06
1.09927e-06
1.09924e-06
1.09929e-06
1.09939e-06
1.1007e-06
1.1009e-06
1.10066e-06
1.09953e-06
1.10084e-06
1.10092e-06
1.08567e-06
1.08555e-06
1.08544e-06
1.08392e-06
1.08383e-06
1.08379e-06
1.08389e-06
1.08536e-06
1.08554e-06
1.08544e-06
1.08345e-06
1.08092e-06
1.08092e-06
1.08092e-06
1.08092e-06
1.08352e-06
1.08414e-06
1.08392e-06
1.08092e-06
1.08092e-06
1.08092e-06
1.08092e-06
1.08092e-06
1.08092e-06
1.08404e-06
1.08562e-06
1.08567e-06
1.08383e-06
1.08092e-06
1.08092e-06
1.08092e-06
1.08092e-06
1.08092e-06
1.08092e-06
1.08399e-06
1.08539e-06
1.08555e-06
1.08379e-06
1.08092e-06
1.08092e-06
1.08092e-06
1.08092e-06
1.08092e-06
1.08092e-06
1.08396e-06
1.08425e-06
1.08389e-06
1.08092e-06
1.08092e-06
1.08092e-06
1.08092e-06
1.08092e-06
1.08092e-06
1.08402e-06
1.08556e-06
1.08536e-06
1.08352e-06
1.08092e-06
1.08092e-06
1.08092e-06
1.08092e-06
1.08362e-06
1.08412e-06
1.08564e-06
1.08554e-06
1.08413e-06
1.08404e-06
1.08399e-06
1.08396e-06
1.08402e-06
1.08412e-06
1.08542e-06
1.08562e-06
1.08538e-06
1.08425e-06
1.08556e-06
1.08564e-06
1.07039e-06
1.07027e-06
1.07016e-06
1.06865e-06
1.06856e-06
1.06852e-06
1.06861e-06
1.07008e-06
1.07026e-06
1.07016e-06
1.06818e-06
1.06565e-06
1.06565e-06
1.06565e-06
1.06565e-06
1.06824e-06
1.06886e-06
1.06865e-06
1.06565e-06
1.06565e-06
1.06565e-06
1.06565e-06
1.06565e-06
1.06565e-06
1.06876e-06
1.07035e-06
1.07039e-06
1.06856e-06
1.06565e-06
1.06565e-06
1.06565e-06
1.06565e-06
1.06565e-06
1.06565e-06
1.06871e-06
1.07011e-06
1.07027e-06
1.06852e-06
1.06565e-06
1.06565e-06
1.06565e-06
1.06565e-06
1.06565e-06
1.06565e-06
1.06868e-06
1.06897e-06
1.06861e-06
1.06565e-06
1.06565e-06
1.06565e-06
1.06565e-06
1.06565e-06
1.06565e-06
1.06874e-06
1.07028e-06
1.07008e-06
1.06824e-06
1.06565e-06
1.06565e-06
1.06565e-06
1.06565e-06
1.06834e-06
1.06884e-06
1.07037e-06
1.07026e-06
1.06886e-06
1.06876e-06
1.06871e-06
1.06868e-06
1.06874e-06
1.06884e-06
1.07015e-06
1.07035e-06
1.07011e-06
1.06897e-06
1.07028e-06
1.07037e-06
1.05511e-06
1.05499e-06
1.05489e-06
1.05337e-06
1.05328e-06
1.05324e-06
1.05334e-06
1.0548e-06
1.05499e-06
1.05488e-06
1.0529e-06
1.05037e-06
1.05037e-06
1.05037e-06
1.05037e-06
1.05297e-06
1.05358e-06
1.05337e-06
1.05037e-06
1.05037e-06
1.05037e-06
1.05037e-06
1.05037e-06
1.05037e-06
1.05348e-06
1.05507e-06
1.05511e-06
1.05328e-06
1.05037e-06
1.05037e-06
1.05037e-06
1.05037e-06
1.05037e-06
1.05037e-06
1.05344e-06
1.05483e-06
1.05499e-06
1.05324e-06
1.05037e-06
1.05037e-06
1.05037e-06
1.05037e-06
1.05037e-06
1.05037e-06
1.05341e-06
1.0537e-06
1.05334e-06
1.05037e-06
1.05037e-06
1.05037e-06
1.05037e-06
1.05037e-06
1.05037e-06
1.05346e-06
1.05501e-06
1.0548e-06
1.05297e-06
1.05037e-06
1.05037e-06
1.05037e-06
1.05037e-06
1.05306e-06
1.05356e-06
1.05509e-06
1.05499e-06
1.05358e-06
1.05348e-06
1.05344e-06
1.05341e-06
1.05346e-06
1.05356e-06
1.05487e-06
1.05507e-06
1.05483e-06
1.0537e-06
1.05501e-06
1.05509e-06
1.03984e-06
1.03972e-06
1.03961e-06
1.0381e-06
1.03801e-06
1.03796e-06
1.03806e-06
1.03953e-06
1.03971e-06
1.03961e-06
1.03763e-06
1.03509e-06
1.03509e-06
1.03509e-06
1.03509e-06
1.03769e-06
1.03831e-06
1.0381e-06
1.03509e-06
1.03509e-06
1.03509e-06
1.03509e-06
1.03509e-06
1.03509e-06
1.03821e-06
1.03979e-06
1.03984e-06
1.03801e-06
1.03509e-06
1.03509e-06
1.03509e-06
1.03509e-06
1.03509e-06
1.03509e-06
1.03816e-06
1.03956e-06
1.03972e-06
1.03796e-06
1.03509e-06
1.03509e-06
1.03509e-06
1.03509e-06
1.03509e-06
1.03509e-06
1.03813e-06
1.03842e-06
1.03806e-06
1.03509e-06
1.03509e-06
1.03509e-06
1.03509e-06
1.03509e-06
1.03509e-06
1.03819e-06
1.03973e-06
1.03953e-06
1.03769e-06
1.03509e-06
1.03509e-06
1.03509e-06
1.03509e-06
1.03779e-06
1.03829e-06
1.03982e-06
1.03971e-06
1.03831e-06
1.03821e-06
1.03816e-06
1.03813e-06
1.03819e-06
1.03829e-06
1.03959e-06
1.03979e-06
1.03956e-06
1.03842e-06
1.03973e-06
1.03982e-06
1.02456e-06
1.02444e-06
1.02433e-06
1.02282e-06
1.02273e-06
1.02269e-06
1.02279e-06
1.02425e-06
1.02443e-06
1.02433e-06
1.02235e-06
1.01982e-06
1.01982e-06
1.01982e-06
1.01982e-06
1.02241e-06
1.02303e-06
1.02282e-06
1.01982e-06
1.01982e-06
1.01982e-06
1.01982e-06
1.01982e-06
1.01982e-06
1.02293e-06
1.02452e-06
1.02456e-06
1.02273e-06
1.01982e-06
1.01982e-06
1.01982e-06
1.01982e-06
1.01982e-06
1.01982e-06
1.02288e-06
1.02428e-06
1.02444e-06
1.02269e-06
1.01982e-06
1.01982e-06
1.01982e-06
1.01982e-06
1.01982e-06
1.01982e-06
1.02285e-06
1.02314e-06
1.02279e-06
1.01982e-06
1.01982e-06
1.01982e-06
1.01982e-06
1.01982e-06
1.01982e-06
1.02291e-06
1.02445e-06
1.02425e-06
1.02241e-06
1.01982e-06
1.01982e-06
1.01982e-06
1.01982e-06
1.02251e-06
1.02301e-06
1.02454e-06
1.02443e-06
1.02303e-06
1.02293e-06
1.02288e-06
1.02285e-06
1.02291e-06
1.02301e-06
1.02432e-06
1.02452e-06
1.02428e-06
1.02314e-06
1.02445e-06
1.02454e-06
1.00929e-06
1.00916e-06
1.00906e-06
1.00754e-06
1.00745e-06
1.00741e-06
1.00751e-06
1.00897e-06
1.00916e-06
1.00906e-06
1.00707e-06
1.00454e-06
1.00454e-06
1.00454e-06
1.00454e-06
1.00714e-06
1.00775e-06
1.00754e-06
1.00454e-06
1.00454e-06
1.00454e-06
1.00454e-06
1.00454e-06
1.00454e-06
1.00765e-06
1.00924e-06
1.00929e-06
1.00745e-06
1.00454e-06
1.00454e-06
1.00454e-06
1.00454e-06
1.00454e-06
1.00454e-06
1.00761e-06
1.009e-06
1.00916e-06
1.00741e-06
1.00454e-06
1.00454e-06
1.00454e-06
1.00454e-06
1.00454e-06
1.00454e-06
1.00758e-06
1.00787e-06
1.00751e-06
1.00454e-06
1.00454e-06
1.00454e-06
1.00454e-06
1.00454e-06
1.00454e-06
1.00764e-06
1.00918e-06
1.00897e-06
1.00714e-06
1.00454e-06
1.00454e-06
1.00454e-06
1.00454e-06
1.00724e-06
1.00774e-06
1.00926e-06
1.00916e-06
1.00775e-06
1.00765e-06
1.00761e-06
1.00758e-06
1.00764e-06
1.00774e-06
1.00904e-06
1.00924e-06
1.00901e-06
1.00787e-06
1.00918e-06
1.00926e-06
9.94009e-07
9.93888e-07
9.9378e-07
9.92266e-07
9.92176e-07
9.92133e-07
9.92233e-07
9.93697e-07
9.93881e-07
9.93779e-07
9.91796e-07
9.89265e-07
9.89265e-07
9.89265e-07
9.89265e-07
9.91861e-07
9.92477e-07
9.92266e-07
9.89265e-07
9.89265e-07
9.89265e-07
9.89265e-07
9.89265e-07
9.89265e-07
9.92378e-07
9.93964e-07
9.94009e-07
9.92176e-07
9.89265e-07
9.89265e-07
9.89265e-07
9.89265e-07
9.89265e-07
9.89265e-07
9.92331e-07
9.93728e-07
9.93888e-07
9.92133e-07
9.89265e-07
9.89265e-07
9.89265e-07
9.89265e-07
9.89265e-07
9.89265e-07
9.92301e-07
9.92591e-07
9.92233e-07
9.89265e-07
9.89265e-07
9.89265e-07
9.89265e-07
9.89265e-07
9.89265e-07
9.92359e-07
9.93901e-07
9.93697e-07
9.91861e-07
9.89265e-07
9.89265e-07
9.89265e-07
9.89265e-07
9.91959e-07
9.92459e-07
9.93986e-07
9.93881e-07
9.92477e-07
9.92378e-07
9.92331e-07
9.92301e-07
9.92359e-07
9.92459e-07
9.93764e-07
9.93964e-07
9.93729e-07
9.92591e-07
9.93901e-07
9.93986e-07
9.78733e-07
9.78611e-07
9.78503e-07
9.7699e-07
9.76899e-07
9.76857e-07
9.76956e-07
9.78421e-07
9.78605e-07
9.78503e-07
9.7652e-07
9.73989e-07
9.73989e-07
9.73989e-07
9.73989e-07
9.76585e-07
9.772e-07
9.7699e-07
9.73989e-07
9.73989e-07
9.73989e-07
9.73989e-07
9.73989e-07
9.73989e-07
9.77101e-07
9.78687e-07
9.78733e-07
9.76899e-07
9.73989e-07
9.73989e-07
9.73989e-07
9.73989e-07
9.73989e-07
9.73989e-07
9.77054e-07
9.78452e-07
9.78611e-07
9.76857e-07
9.73989e-07
9.73989e-07
9.73989e-07
9.73989e-07
9.73989e-07
9.73989e-07
9.77024e-07
9.77315e-07
9.76956e-07
9.73989e-07
9.73989e-07
9.73989e-07
9.73989e-07
9.73989e-07
9.73989e-07
9.77082e-07
9.78625e-07
9.78421e-07
9.76585e-07
9.73989e-07
9.73989e-07
9.73989e-07
9.73989e-07
9.76683e-07
9.77182e-07
9.7871e-07
9.78605e-07
9.772e-07