/*--------------------------------*- C++ -*----------------------------------*\
| =========                 |                                                 |
| \\      /  F ield         | OpenFOAM: The Open Source CFD Toolbox           |
|  \\    /   O peration     | Version:  v2012                                 |
|   \\  /    A nd           | Website:  www.openfoam.com                      |
|    \\/     M anipulation  |                                                 |
\*---------------------------------------------------------------------------*/
FoamFile
{
    version     2.0;
    format      ascii;
    class       volScalarField;
    location    "0.06";
    object      p;
}
// * * * * * * * * * * * * * * * * * * * * * * * * * * * * * * * * * * * * * //

dimensions      [0 2 -2 0 0 0 0];


internalField   nonuniform List<scalar> 
244288
(
2.48283e-06
2.4852e-06
2.48506e-06
2.48437e-06
2.48385e-06
2.48449e-06
2.48514e-06
2.48519e-06
2.48543e-06
2.48544e-06
2.48506e-06
2.48481e-06
2.48513e-06
2.48548e-06
2.48541e-06
2.48506e-06
2.48544e-06
2.48527e-06
2.48487e-06
2.4847e-06
2.48493e-06
2.48533e-06
2.48544e-06
2.48501e-06
2.48437e-06
2.48506e-06
2.48487e-06
2.48448e-06
2.48432e-06
2.48453e-06
2.48493e-06
2.48505e-06
2.48422e-06
2.48284e-06
2.48385e-06
2.48481e-06
2.4847e-06
2.48432e-06
2.48417e-06
2.48437e-06
2.48475e-06
2.48478e-06
2.48367e-06
2.48449e-06
2.48512e-06
2.48493e-06
2.48453e-06
2.48437e-06
2.48458e-06
2.48499e-06
2.48512e-06
2.48436e-06
2.48514e-06
2.48548e-06
2.48532e-06
2.48493e-06
2.48475e-06
2.48499e-06
2.48539e-06
2.48549e-06
2.48512e-06
2.48541e-06
2.48543e-06
2.48504e-06
2.48478e-06
2.48512e-06
2.48549e-06
2.4854e-06
2.48501e-06
2.48422e-06
2.48367e-06
2.48436e-06
2.48512e-06
2.44984e-06
2.44809e-06
2.44987e-06
2.44816e-06
2.4476e-06
2.44758e-06
2.44763e-06
2.45112e-06
2.45068e-06
2.44985e-06
2.44731e-06
2.4443e-06
2.44405e-06
2.44406e-06
2.44432e-06
2.44928e-06
2.44843e-06
2.44815e-06
2.44429e-06
2.4441e-06
2.44404e-06
2.44404e-06
2.44411e-06
2.44431e-06
2.44936e-06
2.45191e-06
2.44988e-06
2.44761e-06
2.44404e-06
2.44403e-06
2.44405e-06
2.44405e-06
2.44405e-06
2.44407e-06
2.44864e-06
2.45029e-06
2.44801e-06
2.44758e-06
2.44405e-06
2.44404e-06
2.44405e-06
2.44406e-06
2.44405e-06
2.44407e-06
2.44862e-06
2.44698e-06
2.44762e-06
2.44431e-06
2.44411e-06
2.44404e-06
2.44404e-06
2.44412e-06
2.44434e-06
2.44889e-06
2.44906e-06
2.45111e-06
2.44927e-06
2.4443e-06
2.44406e-06
2.44406e-06
2.44432e-06
2.44998e-06
2.44935e-06
2.45209e-06
2.45068e-06
2.44842e-06
2.44935e-06
2.44864e-06
2.44861e-06
2.44887e-06
2.44931e-06
2.45265e-06
2.45191e-06
2.45031e-06
2.44697e-06
2.44902e-06
2.45208e-06
2.4279e-06
2.42783e-06
2.42788e-06
2.42509e-06
2.4251e-06
2.42488e-06
2.42521e-06
2.42937e-06
2.42891e-06
2.42787e-06
2.42446e-06
2.42113e-06
2.42067e-06
2.42065e-06
2.42116e-06
2.42831e-06
2.42632e-06
2.42508e-06
2.42112e-06
2.4199e-06
2.41982e-06
2.41982e-06
2.4199e-06
2.42119e-06
2.42922e-06
2.42997e-06
2.42784e-06
2.42511e-06
2.42064e-06
2.41981e-06
2.41978e-06
2.41978e-06
2.41982e-06
2.42065e-06
2.42866e-06
2.42839e-06
2.42768e-06
2.42486e-06
2.42063e-06
2.41981e-06
2.41977e-06
2.41978e-06
2.41982e-06
2.42066e-06
2.42826e-06
2.42479e-06
2.42518e-06
2.42113e-06
2.41988e-06
2.41979e-06
2.41979e-06
2.41989e-06
2.42117e-06
2.42912e-06
2.42924e-06
2.42938e-06
2.4283e-06
2.42116e-06
2.42061e-06
2.4206e-06
2.42114e-06
2.43053e-06
2.428e-06
2.42952e-06
2.42892e-06
2.42633e-06
2.42921e-06
2.42864e-06
2.42823e-06
2.4291e-06
2.42805e-06
2.43052e-06
2.42996e-06
2.4283e-06
2.42482e-06
2.4292e-06
2.42958e-06
2.40245e-06
2.40243e-06
2.40266e-06
2.3995e-06
2.39957e-06
2.39925e-06
2.39979e-06
2.40426e-06
2.40381e-06
2.40268e-06
2.39797e-06
2.39472e-06
2.39457e-06
2.39457e-06
2.39479e-06
2.40246e-06
2.4014e-06
2.39948e-06
2.39472e-06
2.3944e-06
2.39437e-06
2.39437e-06
2.39442e-06
2.39475e-06
2.4044e-06
2.40482e-06
2.40245e-06
2.39957e-06
2.39455e-06
2.39436e-06
2.39435e-06
2.39436e-06
2.39437e-06
2.39457e-06
2.4044e-06
2.40309e-06
2.40237e-06
2.39924e-06
2.39456e-06
2.39437e-06
2.39435e-06
2.39435e-06
2.39437e-06
2.39457e-06
2.40406e-06
2.39962e-06
2.39978e-06
2.39478e-06
2.39441e-06
2.39437e-06
2.39437e-06
2.39442e-06
2.39479e-06
2.40467e-06
2.40399e-06
2.40428e-06
2.40245e-06
2.39475e-06
2.39456e-06
2.39456e-06
2.39474e-06
2.40589e-06
2.40295e-06
2.40453e-06
2.40381e-06
2.40141e-06
2.4044e-06
2.40441e-06
2.40406e-06
2.40467e-06
2.40301e-06
2.4052e-06
2.40483e-06
2.40308e-06
2.39965e-06
2.404e-06
2.40456e-06
2.37728e-06
2.37722e-06
2.37705e-06
2.37375e-06
2.37388e-06
2.37344e-06
2.37414e-06
2.37868e-06
2.37815e-06
2.37706e-06
2.37134e-06
2.36838e-06
2.36835e-06
2.36835e-06
2.3684e-06
2.37629e-06
2.37595e-06
2.37375e-06
2.36837e-06
2.36831e-06
2.36831e-06
2.36832e-06
2.36832e-06
2.36839e-06
2.37904e-06
2.37947e-06
2.37726e-06
2.37385e-06
2.36835e-06
2.36831e-06
2.36832e-06
2.36832e-06
2.36832e-06
2.36835e-06
2.37958e-06
2.37796e-06
2.37721e-06
2.37337e-06
2.36835e-06
2.36832e-06
2.36832e-06
2.36832e-06
2.36832e-06
2.36836e-06
2.37934e-06
2.37458e-06
2.37416e-06
2.36841e-06
2.36832e-06
2.36832e-06
2.36832e-06
2.36832e-06
2.3684e-06
2.37958e-06
2.37877e-06
2.37869e-06
2.37628e-06
2.36839e-06
2.36835e-06
2.36835e-06
2.36839e-06
2.38068e-06
2.37754e-06
2.37908e-06
2.37814e-06
2.37595e-06
2.37904e-06
2.37959e-06
2.37935e-06
2.3796e-06
2.37765e-06
2.37962e-06
2.37949e-06
2.37794e-06
2.37458e-06
2.37879e-06
2.37912e-06
2.35151e-06
2.35157e-06
2.35123e-06
2.34788e-06
2.348e-06
2.34749e-06
2.34828e-06
2.35287e-06
2.35231e-06
2.35125e-06
2.34519e-06
2.34229e-06
2.34229e-06
2.34229e-06
2.34229e-06
2.3502e-06
2.35012e-06
2.34788e-06
2.34228e-06
2.34227e-06
2.34228e-06
2.34228e-06
2.34228e-06
2.34229e-06
2.35323e-06
2.35369e-06
2.35161e-06
2.34797e-06
2.34228e-06
2.34228e-06
2.34228e-06
2.34228e-06
2.34228e-06
2.34229e-06
2.35393e-06
2.35227e-06
2.35162e-06
2.3475e-06
2.34228e-06
2.34228e-06
2.34228e-06
2.34228e-06
2.34228e-06
2.34229e-06
2.35373e-06
2.34896e-06
2.34826e-06
2.34231e-06
2.34229e-06
2.34228e-06
2.34228e-06
2.34228e-06
2.3423e-06
2.35386e-06
2.35308e-06
2.35286e-06
2.35023e-06
2.3423e-06
2.34229e-06
2.34229e-06
2.3423e-06
2.35498e-06
2.35178e-06
2.35332e-06
2.35231e-06
2.35013e-06
2.35324e-06
2.35394e-06
2.35374e-06
2.35388e-06
2.35187e-06
2.3538e-06
2.35373e-06
2.35226e-06
2.34895e-06
2.35308e-06
2.35333e-06
2.32566e-06
2.32566e-06
2.32528e-06
2.32191e-06
2.32203e-06
2.3215e-06
2.32232e-06
2.32691e-06
2.32636e-06
2.32531e-06
2.31917e-06
2.31627e-06
2.31627e-06
2.31627e-06
2.31627e-06
2.3242e-06
2.32418e-06
2.32192e-06
2.31627e-06
2.31627e-06
2.31627e-06
2.31627e-06
2.31627e-06
2.31627e-06
2.32729e-06
2.32774e-06
2.32572e-06
2.32201e-06
2.31628e-06
2.31627e-06
2.31627e-06
2.31627e-06
2.31627e-06
2.31627e-06
2.32803e-06
2.32635e-06
2.32561e-06
2.32151e-06
2.31628e-06
2.31628e-06
2.31627e-06
2.31627e-06
2.31627e-06
2.31627e-06
2.32783e-06
2.32306e-06
2.32232e-06
2.31628e-06
2.31628e-06
2.31627e-06
2.31627e-06
2.31627e-06
2.31627e-06
2.32794e-06
2.32715e-06
2.32694e-06
2.32422e-06
2.31628e-06
2.31627e-06
2.31627e-06
2.31627e-06
2.32907e-06
2.32587e-06
2.32738e-06
2.32637e-06
2.3242e-06
2.32731e-06
2.32805e-06
2.32785e-06
2.32796e-06
2.32594e-06
2.32785e-06
2.3278e-06
2.32634e-06
2.32306e-06
2.32718e-06
2.32739e-06
2.2997e-06
2.2997e-06
2.29933e-06
2.29593e-06
2.29606e-06
2.29553e-06
2.29634e-06
2.30094e-06
2.30037e-06
2.29933e-06
2.29312e-06
2.29027e-06
2.29027e-06
2.29027e-06
2.29027e-06
2.29821e-06
2.2982e-06
2.29593e-06
2.29027e-06
2.29027e-06
2.29027e-06
2.29027e-06
2.29027e-06
2.29027e-06
2.30132e-06
2.30176e-06
2.29974e-06
2.29604e-06
2.29027e-06
2.29027e-06
2.29027e-06
2.29027e-06
2.29027e-06
2.29027e-06
2.30207e-06
2.30038e-06
2.29973e-06
2.29552e-06
2.29027e-06
2.29027e-06
2.29027e-06
2.29027e-06
2.29027e-06
2.29027e-06
2.30186e-06
2.29708e-06
2.29633e-06
2.29027e-06
2.29027e-06
2.29027e-06
2.29027e-06
2.29027e-06
2.29027e-06
2.30197e-06
2.30118e-06
2.30096e-06
2.29821e-06
2.29027e-06
2.29027e-06
2.29027e-06
2.29027e-06
2.30309e-06
2.29988e-06
2.3014e-06
2.30039e-06
2.29821e-06
2.30133e-06
2.30209e-06
2.30188e-06
2.30199e-06
2.29996e-06
2.30187e-06
2.30182e-06
2.30039e-06
2.29711e-06
2.30119e-06
2.30139e-06
2.27371e-06
2.27371e-06
2.27334e-06
2.26994e-06
2.27007e-06
2.26952e-06
2.27035e-06
2.27495e-06
2.27439e-06
2.27333e-06
2.26712e-06
2.26428e-06
2.26428e-06
2.26428e-06
2.26427e-06
2.27221e-06
2.27222e-06
2.26991e-06
2.26428e-06
2.26428e-06
2.26428e-06
2.26428e-06
2.26427e-06
2.26427e-06
2.27533e-06
2.27578e-06
2.27365e-06
2.2701e-06
2.26428e-06
2.26427e-06
2.26428e-06
2.26427e-06
2.26427e-06
2.26427e-06
2.27608e-06
2.2744e-06
2.27361e-06
2.26955e-06
2.26427e-06
2.26427e-06
2.26427e-06
2.26427e-06
2.26427e-06
2.26427e-06
2.27588e-06
2.27111e-06
2.27033e-06
2.26427e-06
2.26427e-06
2.26427e-06
2.26427e-06
2.26427e-06
2.26428e-06
2.27599e-06
2.2752e-06
2.27497e-06
2.27221e-06
2.26428e-06
2.26427e-06
2.26427e-06
2.26427e-06
2.27711e-06
2.27391e-06
2.27541e-06
2.2744e-06
2.2722e-06
2.27533e-06
2.27609e-06
2.27589e-06
2.27599e-06
2.27397e-06
2.27589e-06
2.27583e-06
2.27439e-06
2.2711e-06
2.27521e-06
2.27541e-06
2.24772e-06
2.24772e-06
2.24735e-06
2.24395e-06
2.24407e-06
2.24353e-06
2.24436e-06
2.24896e-06
2.2484e-06
2.24733e-06
2.24113e-06
2.23828e-06
2.23828e-06
2.23828e-06
2.23828e-06
2.24622e-06
2.24623e-06
2.24396e-06
2.23829e-06
2.23828e-06
2.23828e-06
2.23828e-06
2.23828e-06
2.23828e-06
2.24933e-06
2.24978e-06
2.24767e-06
2.2441e-06
2.23829e-06
2.23828e-06
2.23828e-06
2.23828e-06
2.23828e-06
2.23828e-06
2.25009e-06
2.2484e-06
2.24758e-06
2.24353e-06
2.23828e-06
2.23828e-06
2.23828e-06
2.23828e-06
2.23828e-06
2.23828e-06
2.24989e-06
2.24512e-06
2.24432e-06
2.23828e-06
2.23828e-06
2.23828e-06
2.23828e-06
2.23828e-06
2.23828e-06
2.24999e-06
2.2492e-06
2.24895e-06
2.24621e-06
2.23828e-06
2.23828e-06
2.23828e-06
2.23828e-06
2.25113e-06
2.24792e-06
2.24942e-06
2.24839e-06
2.24621e-06
2.24934e-06
2.2501e-06
2.2499e-06
2.25e-06
2.24798e-06
2.24989e-06
2.24983e-06
2.24839e-06
2.24511e-06
2.24922e-06
2.24942e-06
2.22173e-06
2.22174e-06
2.22132e-06
2.21795e-06
2.21807e-06
2.21753e-06
2.21837e-06
2.22297e-06
2.2224e-06
2.22133e-06
2.21515e-06
2.21228e-06
2.21228e-06
2.21228e-06
2.21228e-06
2.22022e-06
2.22023e-06
2.21793e-06
2.21229e-06
2.21228e-06
2.21228e-06
2.21228e-06
2.21228e-06
2.21228e-06
2.22334e-06
2.22379e-06
2.22163e-06
2.21808e-06
2.21229e-06
2.21228e-06
2.21228e-06
2.21228e-06
2.21228e-06
2.21229e-06
2.22409e-06
2.22241e-06
2.22166e-06
2.21755e-06
2.21229e-06
2.21228e-06
2.21228e-06
2.21228e-06
2.21228e-06
2.21228e-06
2.2239e-06
2.21913e-06
2.21835e-06
2.21228e-06
2.21228e-06
2.21228e-06
2.21228e-06
2.21228e-06
2.21229e-06
2.224e-06
2.22321e-06
2.22296e-06
2.22022e-06
2.21228e-06
2.21228e-06
2.21229e-06
2.21229e-06
2.22514e-06
2.22193e-06
2.22343e-06
2.2224e-06
2.22022e-06
2.22334e-06
2.22409e-06
2.2239e-06
2.22401e-06
2.22199e-06
2.2239e-06
2.22383e-06
2.2224e-06
2.21913e-06
2.22322e-06
2.22341e-06
2.19573e-06
2.19573e-06
2.19533e-06
2.19196e-06
2.19208e-06
2.19154e-06
2.19237e-06
2.19697e-06
2.1964e-06
2.19535e-06
2.18914e-06
2.18629e-06
2.18629e-06
2.18629e-06
2.18629e-06
2.19423e-06
2.19424e-06
2.19195e-06
2.18629e-06
2.18629e-06
2.18629e-06
2.18629e-06
2.18629e-06
2.18629e-06
2.19734e-06
2.19779e-06
2.19573e-06
2.19208e-06
2.18629e-06
2.18629e-06
2.18629e-06
2.18629e-06
2.18629e-06
2.18629e-06
2.1981e-06
2.19642e-06
2.19573e-06
2.19153e-06
2.18629e-06
2.18629e-06
2.18629e-06
2.18629e-06
2.18629e-06
2.18629e-06
2.1979e-06
2.19313e-06
2.19236e-06
2.18629e-06
2.18629e-06
2.18629e-06
2.18629e-06
2.18629e-06
2.18629e-06
2.198e-06
2.19721e-06
2.19697e-06
2.19423e-06
2.18629e-06
2.18629e-06
2.18629e-06
2.18629e-06
2.19913e-06
2.19593e-06
2.19743e-06
2.1964e-06
2.19423e-06
2.19735e-06
2.1981e-06
2.19791e-06
2.19802e-06
2.19599e-06
2.19791e-06
2.19784e-06
2.1964e-06
2.19313e-06
2.19723e-06
2.19743e-06
2.16973e-06
2.16974e-06
2.16933e-06
2.16596e-06
2.16608e-06
2.16554e-06
2.16637e-06
2.17097e-06
2.17041e-06
2.16936e-06
2.16315e-06
2.16029e-06
2.16029e-06
2.16029e-06
2.16029e-06
2.16823e-06
2.16824e-06
2.16598e-06
2.16029e-06
2.16029e-06
2.16029e-06
2.16029e-06
2.16029e-06
2.16029e-06
2.17134e-06
2.1718e-06
2.16969e-06
2.16607e-06
2.16029e-06
2.16029e-06
2.16029e-06
2.16029e-06
2.16029e-06
2.16029e-06
2.1721e-06
2.17042e-06
2.1697e-06
2.16555e-06
2.16029e-06
2.16029e-06
2.16029e-06
2.16029e-06
2.16029e-06
2.16029e-06
2.1719e-06
2.16714e-06
2.16634e-06
2.16029e-06
2.16029e-06
2.16029e-06
2.16029e-06
2.16029e-06
2.16029e-06
2.172e-06
2.17121e-06
2.17096e-06
2.16823e-06
2.16029e-06
2.16029e-06
2.16029e-06
2.16029e-06
2.17315e-06
2.16993e-06
2.17143e-06
2.1704e-06
2.16823e-06
2.17135e-06
2.1721e-06
2.17191e-06
2.17203e-06
2.17e-06
2.17191e-06
2.17184e-06
2.17041e-06
2.16714e-06
2.17123e-06
2.17143e-06
2.14373e-06
2.14374e-06
2.14335e-06
2.13996e-06
2.14008e-06
2.13954e-06
2.14037e-06
2.14497e-06
2.14441e-06
2.14336e-06
2.13716e-06
2.13429e-06
2.13429e-06
2.13429e-06
2.13429e-06
2.14223e-06
2.14224e-06
2.13996e-06
2.13428e-06
2.13429e-06
2.13429e-06
2.13429e-06
2.13429e-06
2.13429e-06
2.14535e-06
2.14581e-06
2.14385e-06
2.14005e-06
2.13429e-06
2.13429e-06
2.13429e-06
2.13429e-06
2.13429e-06
2.13429e-06
2.1461e-06
2.14441e-06
2.14364e-06
2.13957e-06
2.13429e-06
2.1343e-06
2.13429e-06
2.13429e-06
2.13429e-06
2.13429e-06
2.1459e-06
2.14113e-06
2.14037e-06
2.1343e-06
2.1343e-06
2.1343e-06
2.1343e-06
2.1343e-06
2.13429e-06
2.146e-06
2.14522e-06
2.14498e-06
2.14224e-06
2.1343e-06
2.13429e-06
2.13429e-06
2.13429e-06
2.14715e-06
2.14394e-06
2.14543e-06
2.14441e-06
2.14225e-06
2.14537e-06
2.14612e-06
2.14593e-06
2.14603e-06
2.144e-06
2.14591e-06
2.14585e-06
2.14442e-06
2.14114e-06
2.14524e-06
2.14543e-06
2.11773e-06
2.11774e-06
2.11737e-06
2.11397e-06
2.11409e-06
2.11355e-06
2.11438e-06
2.11898e-06
2.11841e-06
2.11735e-06
2.11115e-06
2.10829e-06
2.1083e-06
2.1083e-06
2.1083e-06
2.11624e-06
2.11625e-06
2.11397e-06
2.1083e-06
2.1083e-06
2.1083e-06
2.1083e-06
2.1083e-06
2.1083e-06
2.11935e-06
2.1198e-06
2.1178e-06
2.11407e-06
2.1083e-06
2.1083e-06
2.1083e-06
2.1083e-06
2.1083e-06
2.1083e-06
2.12011e-06
2.11842e-06
2.1178e-06
2.11355e-06
2.1083e-06
2.1083e-06
2.1083e-06
2.1083e-06
2.1083e-06
2.1083e-06
2.11991e-06
2.11514e-06
2.11435e-06
2.1083e-06
2.1083e-06
2.1083e-06
2.1083e-06
2.1083e-06
2.1083e-06
2.12001e-06
2.11923e-06
2.11899e-06
2.11623e-06
2.1083e-06
2.1083e-06
2.1083e-06
2.10829e-06
2.12115e-06
2.11794e-06
2.11944e-06
2.11842e-06
2.11624e-06
2.11937e-06
2.12013e-06
2.11993e-06
2.12003e-06
2.118e-06
2.11991e-06
2.11986e-06
2.11842e-06
2.11515e-06
2.11923e-06
2.11943e-06
2.09174e-06
2.09176e-06
2.09137e-06
2.08797e-06
2.08809e-06
2.08755e-06
2.08839e-06
2.09299e-06
2.09242e-06
2.09135e-06
2.08515e-06
2.0823e-06
2.0823e-06
2.0823e-06
2.0823e-06
2.09024e-06
2.09025e-06
2.08796e-06
2.0823e-06
2.0823e-06
2.0823e-06
2.0823e-06
2.0823e-06
2.0823e-06
2.09336e-06
2.09381e-06
2.09173e-06
2.08808e-06
2.0823e-06
2.0823e-06
2.0823e-06
2.0823e-06
2.0823e-06
2.0823e-06
2.09411e-06
2.09243e-06
2.09168e-06
2.08751e-06
2.0823e-06
2.0823e-06
2.0823e-06
2.0823e-06
2.0823e-06
2.0823e-06
2.09391e-06
2.08914e-06
2.08841e-06
2.08231e-06
2.08231e-06
2.0823e-06
2.08231e-06
2.08231e-06
2.08231e-06
2.09402e-06
2.09323e-06
2.09302e-06
2.09024e-06
2.08231e-06
2.0823e-06
2.0823e-06
2.0823e-06
2.09515e-06
2.09194e-06
2.09345e-06
2.09244e-06
2.09025e-06
2.09337e-06
2.09412e-06
2.09393e-06
2.09403e-06
2.092e-06
2.09392e-06
2.09387e-06
2.09242e-06
2.08914e-06
2.09323e-06
2.09343e-06
2.06575e-06
2.06575e-06
2.06538e-06
2.06197e-06
2.0621e-06
2.06155e-06
2.06239e-06
2.06699e-06
2.06642e-06
2.06537e-06
2.05916e-06
2.05631e-06
2.05631e-06
2.05631e-06
2.05631e-06
2.06425e-06
2.06426e-06
2.06197e-06
2.05631e-06
2.05631e-06
2.05631e-06
2.05631e-06
2.05631e-06
2.05631e-06
2.06736e-06
2.06781e-06
2.06568e-06
2.06209e-06
2.05631e-06
2.05631e-06
2.05631e-06
2.05631e-06
2.05631e-06
2.05631e-06
2.06812e-06
2.06643e-06
2.06576e-06
2.06155e-06
2.05631e-06
2.05631e-06
2.05631e-06
2.05631e-06
2.05631e-06
2.05631e-06
2.06792e-06
2.06315e-06
2.06239e-06
2.05631e-06
2.05631e-06
2.05631e-06
2.05631e-06
2.05631e-06
2.05631e-06
2.06802e-06
2.06723e-06
2.06699e-06
2.06424e-06
2.05631e-06
2.05631e-06
2.05631e-06
2.05631e-06
2.06916e-06
2.06595e-06
2.06745e-06
2.06642e-06
2.06425e-06
2.06737e-06
2.06811e-06
2.06793e-06
2.06803e-06
2.06601e-06
2.06792e-06
2.06786e-06
2.06643e-06
2.06312e-06
2.06724e-06
2.06745e-06
2.03975e-06
2.03975e-06
2.03938e-06
2.03598e-06
2.03611e-06
2.03556e-06
2.03639e-06
2.04099e-06
2.04043e-06
2.03937e-06
2.03316e-06
2.03031e-06
2.03031e-06
2.03031e-06
2.03031e-06
2.03825e-06
2.03826e-06
2.03598e-06
2.03031e-06
2.03031e-06
2.03031e-06
2.03031e-06
2.03031e-06
2.03031e-06
2.04137e-06
2.04182e-06
2.03967e-06
2.0361e-06
2.03031e-06
2.03031e-06
2.03031e-06
2.03031e-06
2.03031e-06
2.03031e-06
2.04212e-06
2.04044e-06
2.03975e-06
2.03555e-06
2.03031e-06
2.03031e-06
2.03031e-06
2.03031e-06
2.03031e-06
2.03031e-06
2.04193e-06
2.03716e-06
2.03638e-06
2.0303e-06
2.0303e-06
2.03031e-06
2.03031e-06
2.03031e-06
2.03031e-06
2.04203e-06
2.04124e-06
2.04099e-06
2.03824e-06
2.0303e-06
2.03031e-06
2.03031e-06
2.03032e-06
2.04317e-06
2.03996e-06
2.04146e-06
2.04042e-06
2.03825e-06
2.04136e-06
2.0421e-06
2.04193e-06
2.04204e-06
2.04003e-06
2.04193e-06
2.04183e-06
2.04051e-06
2.03708e-06
2.04123e-06
2.04145e-06
2.01376e-06
2.01377e-06
2.01338e-06
2.00998e-06
2.0101e-06
2.00956e-06
2.01039e-06
2.01499e-06
2.01443e-06
2.01336e-06
2.00717e-06
2.00431e-06
2.00431e-06
2.00431e-06
2.00431e-06
2.01225e-06
2.01226e-06
2.00997e-06
2.00431e-06
2.00431e-06
2.00431e-06
2.00431e-06
2.00431e-06
2.00431e-06
2.01537e-06
2.01582e-06
2.01375e-06
2.01012e-06
2.00431e-06
2.00431e-06
2.00431e-06
2.00431e-06
2.00431e-06
2.00431e-06
2.01612e-06
2.01444e-06
2.01368e-06
2.00956e-06
2.00431e-06
2.00431e-06
2.00431e-06
2.00431e-06
2.00431e-06
2.00431e-06
2.01592e-06
2.01116e-06
2.01038e-06
2.00431e-06
2.00431e-06
2.00431e-06
2.00431e-06
2.00431e-06
2.00432e-06
2.01603e-06
2.01524e-06
2.015e-06
2.01225e-06
2.00431e-06
2.00431e-06
2.00431e-06
2.00432e-06
2.01717e-06
2.01395e-06
2.01546e-06
2.01443e-06
2.01226e-06
2.01537e-06
2.01611e-06
2.01594e-06
2.01605e-06
2.01403e-06
2.01593e-06
2.01587e-06
2.0145e-06
2.01114e-06
2.01523e-06
2.01545e-06
1.98776e-06
1.98776e-06
1.98739e-06
1.98398e-06
1.98411e-06
1.98356e-06
1.98439e-06
1.98899e-06
1.98843e-06
1.98737e-06
1.98117e-06
1.97832e-06
1.97831e-06
1.97831e-06
1.97831e-06
1.98625e-06
1.98626e-06
1.98398e-06
1.97832e-06
1.97831e-06
1.97831e-06
1.97831e-06
1.97831e-06
1.97831e-06
1.98937e-06
1.98982e-06
1.98769e-06
1.98411e-06
1.97832e-06
1.97831e-06
1.97831e-06
1.97831e-06
1.97831e-06
1.97831e-06
1.99012e-06
1.98844e-06
1.98771e-06
1.98355e-06
1.97831e-06
1.97831e-06
1.97831e-06
1.97831e-06
1.97831e-06
1.97831e-06
1.98992e-06
1.98515e-06
1.98439e-06
1.97832e-06
1.97832e-06
1.97832e-06
1.97831e-06
1.97831e-06
1.97831e-06
1.99003e-06
1.98924e-06
1.98901e-06
1.98625e-06
1.97832e-06
1.97832e-06
1.97831e-06
1.97831e-06
1.99117e-06
1.98796e-06
1.98945e-06
1.98843e-06
1.98625e-06
1.98936e-06
1.99014e-06
1.98998e-06
1.99005e-06
1.98802e-06
1.98993e-06
1.9898e-06
1.98837e-06
1.98522e-06
1.98928e-06
1.98946e-06
1.96176e-06
1.96175e-06
1.96139e-06
1.95799e-06
1.95813e-06
1.95757e-06
1.95839e-06
1.96299e-06
1.96243e-06
1.96138e-06
1.95517e-06
1.95232e-06
1.95232e-06
1.95232e-06
1.95231e-06
1.96025e-06
1.96026e-06
1.95798e-06
1.95231e-06
1.95232e-06
1.95232e-06
1.95232e-06
1.95232e-06
1.95232e-06
1.96337e-06
1.96382e-06
1.96169e-06
1.9581e-06
1.95231e-06
1.95232e-06
1.95232e-06
1.95232e-06
1.95232e-06
1.95232e-06
1.96413e-06
1.96244e-06
1.96172e-06
1.95755e-06
1.95232e-06
1.95232e-06
1.95232e-06
1.95232e-06
1.95232e-06
1.95232e-06
1.96393e-06
1.95915e-06
1.95841e-06
1.95232e-06
1.95232e-06
1.95232e-06
1.95232e-06
1.95232e-06
1.95231e-06
1.96403e-06
1.96324e-06
1.96302e-06
1.96026e-06
1.95232e-06
1.95232e-06
1.95232e-06
1.95232e-06
1.96517e-06
1.96195e-06
1.96345e-06
1.96244e-06
1.96026e-06
1.96338e-06
1.96416e-06
1.96397e-06
1.96405e-06
1.96203e-06
1.96393e-06
1.96383e-06
1.96237e-06
1.95926e-06
1.96324e-06
1.9635e-06
1.93577e-06
1.93575e-06
1.9354e-06
1.93199e-06
1.93213e-06
1.93157e-06
1.93239e-06
1.937e-06
1.93643e-06
1.93538e-06
1.92918e-06
1.92632e-06
1.92632e-06
1.92632e-06
1.92632e-06
1.93426e-06
1.93427e-06
1.93198e-06
1.92632e-06
1.92632e-06
1.92632e-06
1.92632e-06
1.92632e-06
1.92632e-06
1.93738e-06
1.93783e-06
1.93578e-06
1.93211e-06
1.92632e-06
1.92632e-06
1.92632e-06
1.92632e-06
1.92632e-06
1.92632e-06
1.93813e-06
1.93645e-06
1.93578e-06
1.93157e-06
1.92632e-06
1.92632e-06
1.92632e-06
1.92632e-06
1.92632e-06
1.92632e-06
1.93793e-06
1.93316e-06
1.93241e-06
1.92632e-06
1.92632e-06
1.92632e-06
1.92632e-06
1.92632e-06
1.92632e-06
1.93803e-06
1.93724e-06
1.93701e-06
1.93426e-06
1.92632e-06
1.92632e-06
1.92633e-06
1.92633e-06
1.93917e-06
1.93596e-06
1.93746e-06
1.93644e-06
1.93427e-06
1.93738e-06
1.93812e-06
1.93796e-06
1.93804e-06
1.93603e-06
1.93793e-06
1.93784e-06
1.93651e-06
1.93309e-06
1.9372e-06
1.93749e-06
1.90976e-06
1.90976e-06
1.90939e-06
1.906e-06
1.90613e-06
1.90557e-06
1.9064e-06
1.911e-06
1.91044e-06
1.90939e-06
1.90318e-06
1.90033e-06
1.90033e-06
1.90033e-06
1.90032e-06
1.90826e-06
1.90827e-06
1.90599e-06
1.90033e-06
1.90033e-06
1.90033e-06
1.90033e-06
1.90033e-06
1.90033e-06
1.91138e-06
1.91183e-06
1.90971e-06
1.90611e-06
1.90033e-06
1.90033e-06
1.90033e-06
1.90033e-06
1.90033e-06
1.90033e-06
1.91214e-06
1.91045e-06
1.90977e-06
1.90558e-06
1.90033e-06
1.90033e-06
1.90033e-06
1.90033e-06
1.90033e-06
1.90033e-06
1.91194e-06
1.90717e-06
1.90641e-06
1.90033e-06
1.90033e-06
1.90033e-06
1.90033e-06
1.90033e-06
1.90033e-06
1.91204e-06
1.91126e-06
1.91101e-06
1.90827e-06
1.90032e-06
1.90033e-06
1.90033e-06
1.90033e-06
1.91318e-06
1.90997e-06
1.91147e-06
1.91045e-06
1.90828e-06
1.91139e-06
1.91213e-06
1.91195e-06
1.91206e-06
1.91004e-06
1.91194e-06
1.91189e-06
1.91052e-06
1.90716e-06
1.91124e-06
1.91146e-06
1.8837e-06
1.88373e-06
1.8834e-06
1.88001e-06
1.88013e-06
1.87957e-06
1.88039e-06
1.88503e-06
1.88445e-06
1.88339e-06
1.87718e-06
1.87433e-06
1.87433e-06
1.87433e-06
1.87433e-06
1.88227e-06
1.88228e-06
1.87999e-06
1.87433e-06
1.87433e-06
1.87433e-06
1.87433e-06
1.87433e-06
1.87433e-06
1.88538e-06
1.88584e-06
1.88378e-06
1.88013e-06
1.87433e-06
1.87433e-06
1.87433e-06
1.87433e-06
1.87433e-06
1.87433e-06
1.88614e-06
1.88445e-06
1.88374e-06
1.87957e-06
1.87433e-06
1.87433e-06
1.87433e-06
1.87433e-06
1.87433e-06
1.87433e-06
1.88594e-06
1.88117e-06
1.88042e-06
1.87433e-06
1.87433e-06
1.87433e-06
1.87433e-06
1.87433e-06
1.87433e-06
1.88605e-06
1.88526e-06
1.88502e-06
1.88226e-06
1.87433e-06
1.87433e-06
1.87433e-06
1.87433e-06
1.88718e-06
1.88397e-06
1.88547e-06
1.88445e-06
1.88227e-06
1.88538e-06
1.88615e-06
1.88598e-06
1.88607e-06
1.88404e-06
1.88594e-06
1.88583e-06
1.88442e-06
1.8812e-06
1.88527e-06
1.88551e-06
1.8577e-06
1.85775e-06
1.8574e-06
1.854e-06
1.85411e-06
1.85357e-06
1.85441e-06
1.85904e-06
1.85846e-06
1.85738e-06
1.85118e-06
1.84833e-06
1.84833e-06
1.84833e-06
1.84834e-06
1.85628e-06
1.85629e-06
1.85399e-06
1.84833e-06
1.84833e-06
1.84833e-06
1.84833e-06
1.84833e-06
1.84833e-06
1.85939e-06
1.85984e-06
1.85781e-06
1.85411e-06
1.84833e-06
1.84833e-06
1.84833e-06
1.84833e-06
1.84833e-06
1.84834e-06
1.86015e-06
1.85846e-06
1.85778e-06
1.85358e-06
1.84833e-06
1.84833e-06
1.84833e-06
1.84833e-06
1.84833e-06
1.84833e-06
1.85994e-06
1.85518e-06
1.85443e-06
1.84834e-06
1.84834e-06
1.84834e-06
1.84833e-06
1.84833e-06
1.84833e-06
1.86004e-06
1.85926e-06
1.85903e-06
1.85626e-06
1.84834e-06
1.84834e-06
1.84833e-06
1.84833e-06
1.86119e-06
1.85796e-06
1.85947e-06
1.85846e-06
1.85628e-06
1.85938e-06
1.86015e-06
1.85998e-06
1.86006e-06
1.85805e-06
1.85994e-06
1.85984e-06
1.85836e-06
1.85524e-06
1.85925e-06
1.85951e-06
1.83179e-06
1.8318e-06
1.83139e-06
1.828e-06
1.82811e-06
1.82758e-06
1.82843e-06
1.83303e-06
1.83246e-06
1.83139e-06
1.82518e-06
1.82233e-06
1.82234e-06
1.82234e-06
1.82234e-06
1.83028e-06
1.83029e-06
1.828e-06
1.82234e-06
1.82234e-06
1.82234e-06
1.82234e-06
1.82234e-06
1.82234e-06
1.83339e-06
1.83385e-06
1.8317e-06
1.82813e-06
1.82234e-06
1.82234e-06
1.82234e-06
1.82234e-06
1.82234e-06
1.82234e-06
1.83415e-06
1.83246e-06
1.83177e-06
1.82758e-06
1.82234e-06
1.82234e-06
1.82234e-06
1.82234e-06
1.82234e-06
1.82234e-06
1.83395e-06
1.82918e-06
1.82841e-06
1.82234e-06
1.82234e-06
1.82234e-06
1.82234e-06
1.82234e-06
1.82234e-06
1.83405e-06
1.83326e-06
1.83302e-06
1.83026e-06
1.82233e-06
1.82233e-06
1.82233e-06
1.82233e-06
1.83519e-06
1.83198e-06
1.83348e-06
1.83246e-06
1.83027e-06
1.83339e-06
1.83418e-06
1.83398e-06
1.83407e-06
1.83204e-06
1.83395e-06
1.83387e-06
1.8324e-06
1.82923e-06
1.83329e-06
1.83349e-06
1.80569e-06
1.80578e-06
1.80541e-06
1.80201e-06
1.80212e-06
1.80158e-06
1.80243e-06
1.80703e-06
1.80646e-06
1.80539e-06
1.79919e-06
1.79634e-06
1.79634e-06
1.79634e-06
1.79634e-06
1.80428e-06
1.80429e-06
1.802e-06
1.79634e-06
1.79634e-06
1.79634e-06
1.79634e-06
1.79634e-06
1.79634e-06
1.8074e-06
1.80785e-06
1.8058e-06
1.80215e-06
1.79634e-06
1.79634e-06
1.79634e-06
1.79634e-06
1.79634e-06
1.79634e-06
1.80815e-06
1.80647e-06
1.80579e-06
1.80159e-06
1.79634e-06
1.79634e-06
1.79634e-06
1.79634e-06
1.79634e-06
1.79634e-06
1.80795e-06
1.80318e-06
1.8024e-06
1.79634e-06
1.79634e-06
1.79634e-06
1.79634e-06
1.79634e-06
1.79634e-06
1.80805e-06
1.80726e-06
1.80702e-06
1.80425e-06
1.79634e-06
1.79634e-06
1.79634e-06
1.79634e-06
1.80919e-06
1.80597e-06
1.80748e-06
1.80646e-06
1.80427e-06
1.8074e-06
1.80817e-06
1.80796e-06
1.80806e-06
1.80604e-06
1.80795e-06
1.80789e-06
1.80646e-06
1.80319e-06
1.80727e-06
1.80747e-06
1.77979e-06
1.77979e-06
1.77942e-06
1.77602e-06
1.77614e-06
1.7756e-06
1.77642e-06
1.78103e-06
1.78046e-06
1.7794e-06
1.77318e-06
1.77035e-06
1.77034e-06
1.77034e-06
1.77034e-06
1.77828e-06
1.77829e-06
1.77599e-06
1.77035e-06
1.77035e-06
1.77034e-06
1.77034e-06
1.77034e-06
1.77034e-06
1.7814e-06
1.78185e-06
1.77975e-06
1.77616e-06
1.77034e-06
1.77034e-06
1.77034e-06
1.77034e-06
1.77034e-06
1.77034e-06
1.78215e-06
1.78047e-06
1.77968e-06
1.7756e-06
1.77034e-06
1.77034e-06
1.77034e-06
1.77034e-06
1.77034e-06
1.77034e-06
1.78195e-06
1.77718e-06
1.7764e-06
1.77034e-06
1.77034e-06
1.77034e-06
1.77034e-06
1.77034e-06
1.77034e-06
1.78205e-06
1.78127e-06
1.78104e-06
1.77827e-06
1.77034e-06
1.77034e-06
1.77034e-06
1.77034e-06
1.78319e-06
1.77998e-06
1.78148e-06
1.78047e-06
1.77828e-06
1.78139e-06
1.78215e-06
1.78196e-06
1.78207e-06
1.78004e-06
1.78196e-06
1.7819e-06
1.78045e-06
1.77717e-06
1.78127e-06
1.78147e-06
1.75379e-06
1.7538e-06
1.75343e-06
1.75003e-06
1.75014e-06
1.7496e-06
1.75043e-06
1.75503e-06
1.75446e-06
1.75342e-06
1.7472e-06
1.74435e-06
1.74435e-06
1.74435e-06
1.74435e-06
1.75228e-06
1.75229e-06
1.75003e-06
1.74436e-06
1.74435e-06
1.74435e-06
1.74435e-06
1.74435e-06
1.74435e-06
1.7554e-06
1.75585e-06
1.75372e-06
1.75017e-06
1.74435e-06
1.74435e-06
1.74435e-06
1.74435e-06
1.74435e-06
1.74435e-06
1.75615e-06
1.75447e-06
1.75366e-06
1.74961e-06
1.74435e-06
1.74435e-06
1.74435e-06
1.74435e-06
1.74435e-06
1.74435e-06
1.75596e-06
1.75119e-06
1.75038e-06
1.74434e-06
1.74434e-06
1.74435e-06
1.74435e-06
1.74435e-06
1.74435e-06
1.75606e-06
1.75527e-06
1.75501e-06
1.75226e-06
1.74434e-06
1.74434e-06
1.74434e-06
1.74435e-06
1.75719e-06
1.75399e-06
1.75549e-06
1.75446e-06
1.75226e-06
1.7554e-06
1.75617e-06
1.75597e-06
1.75607e-06
1.75404e-06
1.75596e-06
1.7559e-06
1.75446e-06
1.75118e-06
1.75526e-06
1.75547e-06
1.7278e-06
1.7278e-06
1.7274e-06
1.72403e-06
1.72415e-06
1.7236e-06
1.72443e-06
1.72903e-06
1.72847e-06
1.7274e-06
1.72121e-06
1.71835e-06
1.71835e-06
1.71835e-06
1.71835e-06
1.72629e-06
1.7263e-06
1.72401e-06
1.71835e-06
1.71835e-06
1.71835e-06
1.71835e-06
1.71835e-06
1.71835e-06
1.7294e-06
1.72986e-06
1.72764e-06
1.72417e-06
1.71835e-06
1.71835e-06
1.71835e-06
1.71835e-06
1.71835e-06
1.71835e-06
1.73016e-06
1.72847e-06
1.72778e-06
1.7236e-06
1.71835e-06
1.71835e-06
1.71835e-06
1.71835e-06
1.71835e-06
1.71835e-06
1.72996e-06
1.72519e-06
1.72441e-06
1.71835e-06
1.71835e-06
1.71835e-06
1.71835e-06
1.71835e-06
1.71835e-06
1.73006e-06
1.72928e-06
1.72905e-06
1.72629e-06
1.71835e-06
1.71835e-06
1.71835e-06
1.71835e-06
1.7312e-06
1.72799e-06
1.72949e-06
1.72847e-06
1.7263e-06
1.72941e-06
1.73017e-06
1.72997e-06
1.73008e-06
1.72805e-06
1.72997e-06
1.7299e-06
1.72847e-06
1.72519e-06
1.7293e-06
1.7295e-06
1.7018e-06
1.70181e-06
1.7014e-06
1.69803e-06
1.69815e-06
1.69761e-06
1.69844e-06
1.70304e-06
1.70248e-06
1.70142e-06
1.69521e-06
1.69236e-06
1.69236e-06
1.69236e-06
1.69236e-06
1.7003e-06
1.70031e-06
1.69803e-06
1.69236e-06
1.69236e-06
1.69236e-06
1.69236e-06
1.69236e-06
1.69236e-06
1.70341e-06
1.70387e-06
1.70181e-06
1.69815e-06
1.69236e-06
1.69236e-06
1.69236e-06
1.69236e-06
1.69236e-06
1.69236e-06
1.70417e-06
1.70249e-06
1.70179e-06
1.69762e-06
1.69236e-06
1.69236e-06
1.69236e-06
1.69236e-06
1.69236e-06
1.69236e-06
1.70397e-06
1.6992e-06
1.69842e-06
1.69235e-06
1.69235e-06
1.69235e-06
1.69236e-06
1.69236e-06
1.69236e-06
1.70406e-06
1.70328e-06
1.70303e-06
1.70029e-06
1.69235e-06
1.69236e-06
1.69236e-06
1.69236e-06
1.7052e-06
1.702e-06
1.7035e-06
1.70247e-06
1.70029e-06
1.70341e-06
1.70417e-06
1.70398e-06
1.70409e-06
1.70205e-06
1.70397e-06
1.7039e-06
1.70248e-06
1.6992e-06
1.7033e-06
1.70348e-06
1.6758e-06
1.67581e-06
1.6754e-06
1.67203e-06
1.67215e-06
1.67161e-06
1.67244e-06
1.67704e-06
1.67648e-06
1.67542e-06
1.66922e-06
1.66636e-06
1.66636e-06
1.66636e-06
1.66636e-06
1.6743e-06
1.67431e-06
1.67202e-06
1.66636e-06
1.66636e-06
1.66636e-06
1.66636e-06
1.66636e-06
1.66636e-06
1.67742e-06
1.67787e-06
1.6758e-06
1.67216e-06
1.66636e-06
1.66636e-06
1.66636e-06
1.66636e-06
1.66636e-06
1.66636e-06
1.67817e-06
1.67649e-06
1.67577e-06
1.67161e-06
1.66636e-06
1.66636e-06
1.66636e-06
1.66636e-06
1.66636e-06
1.66636e-06
1.67797e-06
1.6732e-06
1.67243e-06
1.66636e-06
1.66636e-06
1.66636e-06
1.66636e-06
1.66636e-06
1.66636e-06
1.67807e-06
1.67729e-06
1.67704e-06
1.67429e-06
1.66636e-06
1.66636e-06
1.66636e-06
1.66636e-06
1.67921e-06
1.676e-06
1.6775e-06
1.67647e-06
1.6743e-06