/*--------------------------------*- C++ -*----------------------------------*\
| =========                 |                                                 |
| \\      /  F ield         | OpenFOAM: The Open Source CFD Toolbox           |
|  \\    /   O peration     | Version:  v2012                                 |
|   \\  /    A nd           | Website:  www.openfoam.com                      |
|    \\/     M anipulation  |                                                 |
\*---------------------------------------------------------------------------*/
FoamFile
{
    version     2.0;
    format      ascii;
    class       volScalarField;
    location    "8.5";
    object      p;
}
// * * * * * * * * * * * * * * * * * * * * * * * * * * * * * * * * * * * * * //

dimensions      [0 2 -2 0 0 0 0];


internalField   nonuniform List<scalar> 
244288
(
1.58534e-06
1.58563e-06
1.58558e-06
1.58542e-06
1.58535e-06
1.58544e-06
1.58559e-06
1.58563e-06
1.58564e-06
1.5854e-06
1.58511e-06
1.585e-06
1.58514e-06
1.58544e-06
1.58565e-06
1.58558e-06
1.5854e-06
1.58496e-06
1.58458e-06
1.58444e-06
1.58461e-06
1.58501e-06
1.58544e-06
1.58557e-06
1.58542e-06
1.58511e-06
1.58458e-06
1.58415e-06
1.584e-06
1.58419e-06
1.58464e-06
1.58517e-06
1.58543e-06
1.58534e-06
1.58535e-06
1.585e-06
1.58444e-06
1.584e-06
1.58386e-06
1.58404e-06
1.58451e-06
1.58506e-06
1.58536e-06
1.58544e-06
1.58514e-06
1.58461e-06
1.58419e-06
1.58404e-06
1.58423e-06
1.58468e-06
1.58519e-06
1.58545e-06
1.58559e-06
1.58544e-06
1.58501e-06
1.58464e-06
1.58451e-06
1.58468e-06
1.58507e-06
1.58548e-06
1.58558e-06
1.58565e-06
1.58544e-06
1.58517e-06
1.58506e-06
1.58519e-06
1.58548e-06
1.58565e-06
1.58558e-06
1.58543e-06
1.58536e-06
1.58545e-06
1.58558e-06
1.56e-06
1.55959e-06
1.55932e-06
1.55785e-06
1.55777e-06
1.55777e-06
1.55778e-06
1.55922e-06
1.55939e-06
1.55932e-06
1.55743e-06
1.55484e-06
1.55483e-06
1.55483e-06
1.55484e-06
1.55737e-06
1.55784e-06
1.55785e-06
1.55484e-06
1.55478e-06
1.55481e-06
1.55481e-06
1.55478e-06
1.55484e-06
1.5577e-06
1.55948e-06
1.56001e-06
1.55777e-06
1.55483e-06
1.55481e-06
1.55486e-06
1.55486e-06
1.55481e-06
1.55483e-06
1.55759e-06
1.55921e-06
1.55959e-06
1.55777e-06
1.55483e-06
1.55481e-06
1.55486e-06
1.55486e-06
1.55481e-06
1.55483e-06
1.55755e-06
1.55805e-06
1.55778e-06
1.55484e-06
1.55478e-06
1.55481e-06
1.55481e-06
1.55478e-06
1.55484e-06
1.55763e-06
1.55931e-06
1.55922e-06
1.55737e-06
1.55484e-06
1.55483e-06
1.55483e-06
1.55484e-06
1.55716e-06
1.55783e-06
1.55951e-06
1.55939e-06
1.55784e-06
1.5577e-06
1.55759e-06
1.55755e-06
1.55763e-06
1.55783e-06
1.55956e-06
1.55948e-06
1.55921e-06
1.55805e-06
1.55931e-06
1.55951e-06
1.54333e-06
1.54318e-06
1.54313e-06
1.54149e-06
1.5414e-06
1.54137e-06
1.54144e-06
1.54298e-06
1.54324e-06
1.54313e-06
1.54106e-06
1.53824e-06
1.53824e-06
1.53824e-06
1.53825e-06
1.54102e-06
1.5416e-06
1.54149e-06
1.53824e-06
1.53822e-06
1.53822e-06
1.53822e-06
1.53822e-06
1.53824e-06
1.54143e-06
1.54322e-06
1.54333e-06
1.5414e-06
1.53824e-06
1.53822e-06
1.53822e-06
1.53822e-06
1.53822e-06
1.53824e-06
1.54131e-06
1.54293e-06
1.54318e-06
1.54137e-06
1.53824e-06
1.53822e-06
1.53822e-06
1.53822e-06
1.53822e-06
1.53824e-06
1.54127e-06
1.54171e-06
1.54144e-06
1.53824e-06
1.53822e-06
1.53822e-06
1.53822e-06
1.53822e-06
1.53824e-06
1.54136e-06
1.54309e-06
1.54298e-06
1.54102e-06
1.53824e-06
1.53824e-06
1.53824e-06
1.53824e-06
1.54087e-06
1.54155e-06
1.54326e-06
1.54324e-06
1.5416e-06
1.54143e-06
1.54131e-06
1.54127e-06
1.54136e-06
1.54155e-06
1.54329e-06
1.54322e-06
1.54293e-06
1.54172e-06
1.54309e-06
1.54326e-06
1.52685e-06
1.52671e-06
1.52664e-06
1.52498e-06
1.52488e-06
1.52485e-06
1.52493e-06
1.52649e-06
1.52674e-06
1.52664e-06
1.52452e-06
1.52169e-06
1.52169e-06
1.52169e-06
1.52169e-06
1.52449e-06
1.52511e-06
1.52498e-06
1.52169e-06
1.52169e-06
1.52169e-06
1.52169e-06
1.52169e-06
1.52169e-06
1.52496e-06
1.52674e-06
1.52685e-06
1.52488e-06
1.52169e-06
1.52169e-06
1.52169e-06
1.52169e-06
1.52169e-06
1.52169e-06
1.52487e-06
1.52646e-06
1.52671e-06
1.52485e-06
1.52169e-06
1.52169e-06
1.52169e-06
1.52169e-06
1.52169e-06
1.52169e-06
1.52483e-06
1.52524e-06
1.52493e-06
1.5217e-06
1.52169e-06
1.52169e-06
1.52169e-06
1.52169e-06
1.52169e-06
1.52491e-06
1.52662e-06
1.52649e-06
1.52449e-06
1.52169e-06
1.52169e-06
1.52169e-06
1.52169e-06
1.52442e-06
1.52507e-06
1.52678e-06
1.52674e-06
1.52511e-06
1.52496e-06
1.52487e-06
1.52483e-06
1.52491e-06
1.52507e-06
1.52674e-06
1.52674e-06
1.52646e-06
1.52524e-06
1.52662e-06
1.52678e-06
1.51033e-06
1.51019e-06
1.51011e-06
1.50845e-06
1.50835e-06
1.50832e-06
1.50841e-06
1.50997e-06
1.51021e-06
1.51011e-06
1.50798e-06
1.50516e-06
1.50516e-06
1.50516e-06
1.50516e-06
1.50796e-06
1.50859e-06
1.50845e-06
1.50516e-06
1.50516e-06
1.50516e-06
1.50516e-06
1.50516e-06
1.50516e-06
1.50844e-06
1.51022e-06
1.51034e-06
1.50835e-06
1.50516e-06
1.50516e-06
1.50516e-06
1.50516e-06
1.50516e-06
1.50516e-06
1.50835e-06
1.50995e-06
1.51019e-06
1.50832e-06
1.50516e-06
1.50516e-06
1.50516e-06
1.50516e-06
1.50516e-06
1.50516e-06
1.50832e-06
1.50873e-06
1.50841e-06
1.50516e-06
1.50516e-06
1.50516e-06
1.50516e-06
1.50516e-06
1.50516e-06
1.50839e-06
1.5101e-06
1.50997e-06
1.50796e-06
1.50516e-06
1.50516e-06
1.50516e-06
1.50516e-06
1.5079e-06
1.50855e-06
1.51026e-06
1.51021e-06
1.50859e-06
1.50844e-06
1.50835e-06
1.50832e-06
1.50839e-06
1.50855e-06
1.51021e-06
1.51022e-06
1.50995e-06
1.50873e-06
1.5101e-06
1.51026e-06
1.49381e-06
1.49367e-06
1.49359e-06
1.49192e-06
1.49182e-06
1.49179e-06
1.49188e-06
1.49344e-06
1.49369e-06
1.49359e-06
1.49145e-06
1.48863e-06
1.48863e-06
1.48863e-06
1.48863e-06
1.49143e-06
1.49206e-06
1.49192e-06
1.48863e-06
1.48863e-06
1.48863e-06
1.48863e-06
1.48863e-06
1.48863e-06
1.49191e-06
1.49369e-06
1.49381e-06
1.49182e-06
1.48863e-06
1.48863e-06
1.48863e-06
1.48863e-06
1.48863e-06
1.48863e-06
1.49183e-06
1.49342e-06
1.49367e-06
1.49178e-06
1.48863e-06
1.48863e-06
1.48863e-06
1.48863e-06
1.48863e-06
1.48863e-06
1.49179e-06
1.4922e-06
1.49188e-06
1.48863e-06
1.48863e-06
1.48863e-06
1.48863e-06
1.48863e-06
1.48863e-06
1.49187e-06
1.49357e-06
1.49344e-06
1.49143e-06
1.48863e-06
1.48863e-06
1.48863e-06
1.48863e-06
1.49138e-06
1.49203e-06
1.49374e-06
1.49369e-06
1.49206e-06
1.49191e-06
1.49183e-06
1.49179e-06
1.49187e-06
1.49203e-06
1.49368e-06
1.49369e-06
1.49342e-06
1.4922e-06
1.49357e-06
1.49374e-06
1.47728e-06
1.47714e-06
1.47706e-06
1.47539e-06
1.4753e-06
1.47526e-06
1.47535e-06
1.47691e-06
1.47716e-06
1.47706e-06
1.47492e-06
1.4721e-06
1.4721e-06
1.4721e-06
1.4721e-06
1.4749e-06
1.47554e-06
1.47539e-06
1.4721e-06
1.4721e-06
1.4721e-06
1.4721e-06
1.4721e-06
1.4721e-06
1.47538e-06
1.47716e-06
1.47728e-06
1.47529e-06
1.4721e-06
1.4721e-06
1.4721e-06
1.4721e-06
1.4721e-06
1.4721e-06
1.4753e-06
1.47689e-06
1.47715e-06
1.47526e-06
1.4721e-06
1.4721e-06
1.4721e-06
1.4721e-06
1.4721e-06
1.4721e-06
1.47527e-06
1.47568e-06
1.47535e-06
1.4721e-06
1.4721e-06
1.4721e-06
1.4721e-06
1.4721e-06
1.4721e-06
1.47534e-06
1.47705e-06
1.47691e-06
1.4749e-06
1.4721e-06
1.4721e-06
1.4721e-06
1.4721e-06
1.47485e-06
1.4755e-06
1.47721e-06
1.47716e-06
1.47554e-06
1.47538e-06
1.4753e-06
1.47527e-06
1.47534e-06
1.4755e-06
1.47715e-06
1.47716e-06
1.47689e-06
1.47568e-06
1.47705e-06
1.47721e-06
1.46075e-06
1.46061e-06
1.46053e-06
1.45886e-06
1.45877e-06
1.45873e-06
1.45882e-06
1.46038e-06
1.46063e-06
1.46053e-06
1.4584e-06
1.45557e-06
1.45557e-06
1.45557e-06
1.45557e-06
1.45837e-06
1.45901e-06
1.45886e-06
1.45557e-06
1.45557e-06
1.45557e-06
1.45557e-06
1.45557e-06
1.45557e-06
1.45886e-06
1.46064e-06
1.46075e-06
1.45877e-06
1.45557e-06
1.45557e-06
1.45557e-06
1.45557e-06
1.45557e-06
1.45557e-06
1.45877e-06
1.46037e-06
1.46061e-06
1.45873e-06
1.45557e-06
1.45557e-06
1.45557e-06
1.45557e-06
1.45557e-06
1.45557e-06
1.45874e-06
1.45915e-06
1.45882e-06
1.45557e-06
1.45557e-06
1.45557e-06
1.45557e-06
1.45557e-06
1.45557e-06
1.45881e-06
1.46052e-06
1.46038e-06
1.45837e-06
1.45557e-06
1.45557e-06
1.45557e-06
1.45557e-06
1.45832e-06
1.45897e-06
1.46068e-06
1.46063e-06
1.45901e-06
1.45886e-06
1.45877e-06
1.45874e-06
1.45881e-06
1.45897e-06
1.46062e-06
1.46064e-06
1.46037e-06
1.45915e-06
1.46052e-06
1.46068e-06
1.44422e-06
1.44408e-06
1.444e-06
1.44234e-06
1.44224e-06
1.4422e-06
1.44229e-06
1.44386e-06
1.4441e-06
1.444e-06
1.44187e-06
1.43904e-06
1.43904e-06
1.43904e-06
1.43904e-06
1.44185e-06
1.44248e-06
1.44234e-06
1.43904e-06
1.43904e-06
1.43904e-06
1.43904e-06
1.43904e-06
1.43904e-06
1.44233e-06
1.44411e-06
1.44422e-06
1.44224e-06
1.43904e-06
1.43904e-06
1.43904e-06
1.43904e-06
1.43904e-06
1.43904e-06
1.44225e-06
1.44384e-06
1.44408e-06
1.4422e-06
1.43904e-06
1.43904e-06
1.43904e-06
1.43904e-06
1.43904e-06
1.43904e-06
1.44221e-06
1.44262e-06
1.44229e-06
1.43904e-06
1.43904e-06
1.43904e-06
1.43904e-06
1.43904e-06
1.43904e-06
1.44228e-06
1.44399e-06
1.44386e-06
1.44184e-06
1.43904e-06
1.43904e-06
1.43904e-06
1.43904e-06
1.4418e-06
1.44244e-06
1.44415e-06
1.4441e-06
1.44248e-06
1.44233e-06
1.44225e-06
1.44221e-06
1.44229e-06
1.44244e-06
1.44409e-06
1.44411e-06
1.44384e-06
1.44262e-06
1.44399e-06
1.44415e-06
1.4277e-06
1.42755e-06
1.42747e-06
1.42581e-06
1.42571e-06
1.42567e-06
1.42576e-06
1.42733e-06
1.42757e-06
1.42747e-06
1.42534e-06
1.42251e-06
1.42251e-06
1.42251e-06
1.42251e-06
1.42532e-06
1.42595e-06
1.42581e-06
1.42251e-06
1.42251e-06
1.42251e-06
1.42251e-06
1.42251e-06
1.42251e-06
1.4258e-06
1.42758e-06
1.42769e-06
1.42571e-06
1.42251e-06
1.42251e-06
1.42251e-06
1.42251e-06
1.42251e-06
1.42251e-06
1.42572e-06
1.42731e-06
1.42755e-06
1.42567e-06
1.42251e-06
1.42251e-06
1.42251e-06
1.42251e-06
1.42251e-06
1.42251e-06
1.42568e-06
1.42609e-06
1.42576e-06
1.42251e-06
1.42251e-06
1.42251e-06
1.42251e-06
1.42251e-06
1.42251e-06
1.42576e-06
1.42746e-06
1.42733e-06
1.42532e-06
1.42251e-06
1.42251e-06
1.42251e-06
1.42251e-06
1.42527e-06
1.42591e-06
1.42762e-06
1.42757e-06
1.42595e-06
1.4258e-06
1.42572e-06
1.42568e-06
1.42576e-06
1.42591e-06
1.42756e-06
1.42758e-06
1.42731e-06
1.42609e-06
1.42746e-06
1.42762e-06
1.41117e-06
1.41102e-06
1.41094e-06
1.40928e-06
1.40918e-06
1.40914e-06
1.40923e-06
1.4108e-06
1.41104e-06
1.41094e-06
1.40881e-06
1.40598e-06
1.40598e-06
1.40598e-06
1.40598e-06
1.40879e-06
1.40942e-06
1.40928e-06
1.40598e-06
1.40598e-06
1.40598e-06
1.40598e-06
1.40598e-06
1.40598e-06
1.40927e-06
1.41105e-06
1.41117e-06
1.40918e-06
1.40598e-06
1.40598e-06
1.40598e-06
1.40598e-06
1.40598e-06
1.40598e-06
1.40919e-06
1.41078e-06
1.41102e-06
1.40914e-06
1.40598e-06
1.40598e-06
1.40598e-06
1.40598e-06
1.40598e-06
1.40598e-06
1.40915e-06
1.40956e-06
1.40923e-06
1.40598e-06
1.40598e-06
1.40598e-06
1.40598e-06
1.40598e-06
1.40598e-06
1.40923e-06
1.41093e-06
1.4108e-06
1.40879e-06
1.40598e-06
1.40598e-06
1.40598e-06
1.40598e-06
1.40874e-06
1.40938e-06
1.41109e-06
1.41104e-06
1.40942e-06
1.40927e-06
1.40919e-06
1.40915e-06
1.40923e-06
1.40938e-06
1.41103e-06
1.41105e-06
1.41078e-06
1.40956e-06
1.41093e-06
1.41109e-06
1.39464e-06
1.3945e-06
1.39442e-06
1.39275e-06
1.39265e-06
1.39261e-06
1.39271e-06
1.39427e-06
1.39452e-06
1.39442e-06
1.39228e-06
1.38945e-06
1.38945e-06
1.38945e-06
1.38945e-06
1.39226e-06
1.39289e-06
1.39275e-06
1.38945e-06
1.38945e-06
1.38945e-06
1.38945e-06
1.38946e-06
1.38945e-06
1.39274e-06
1.39452e-06
1.39464e-06
1.39265e-06
1.38945e-06
1.38946e-06
1.38945e-06
1.38945e-06
1.38946e-06
1.38945e-06
1.39266e-06
1.39425e-06
1.3945e-06
1.39261e-06
1.38946e-06
1.38946e-06
1.38946e-06
1.38946e-06
1.38946e-06
1.38945e-06
1.39262e-06
1.39303e-06
1.39271e-06
1.38945e-06
1.38946e-06
1.38946e-06
1.38946e-06
1.38946e-06
1.38945e-06
1.3927e-06
1.3944e-06
1.39427e-06
1.39226e-06
1.38945e-06
1.38945e-06
1.38945e-06
1.38945e-06
1.39221e-06
1.39286e-06
1.39456e-06
1.39452e-06
1.39289e-06
1.39274e-06
1.39266e-06
1.39262e-06
1.3927e-06
1.39286e-06
1.39451e-06
1.39452e-06
1.39425e-06
1.39303e-06
1.3944e-06
1.39456e-06
1.37811e-06
1.37797e-06
1.37789e-06
1.37622e-06
1.37612e-06
1.37609e-06
1.37618e-06
1.37774e-06
1.37799e-06
1.37789e-06
1.37575e-06
1.37293e-06
1.37293e-06
1.37293e-06
1.37293e-06
1.37573e-06
1.37636e-06
1.37622e-06
1.37293e-06
1.37293e-06
1.37293e-06
1.37293e-06
1.37293e-06
1.37293e-06
1.37621e-06
1.37799e-06
1.37811e-06
1.37612e-06
1.37293e-06
1.37293e-06
1.37293e-06
1.37293e-06
1.37293e-06
1.37293e-06
1.37613e-06
1.37772e-06
1.37797e-06
1.37609e-06
1.37293e-06
1.37293e-06
1.37293e-06
1.37293e-06
1.37293e-06
1.37293e-06
1.37609e-06
1.37651e-06
1.37618e-06
1.37293e-06
1.37293e-06
1.37293e-06
1.37293e-06
1.37293e-06
1.37293e-06
1.37617e-06
1.37788e-06
1.37774e-06
1.37573e-06
1.37293e-06
1.37293e-06
1.37293e-06
1.37293e-06
1.37568e-06
1.37633e-06
1.37804e-06
1.37799e-06
1.37636e-06
1.37621e-06
1.37613e-06
1.37609e-06
1.37617e-06
1.37633e-06
1.37798e-06
1.37799e-06
1.37772e-06
1.37651e-06
1.37788e-06
1.37804e-06
1.36158e-06
1.36144e-06
1.36136e-06
1.35969e-06
1.3596e-06
1.35956e-06
1.35965e-06
1.36121e-06
1.36146e-06
1.36136e-06
1.35922e-06
1.3564e-06
1.3564e-06
1.3564e-06
1.3564e-06
1.3592e-06
1.35984e-06
1.35969e-06
1.3564e-06
1.3564e-06
1.3564e-06
1.3564e-06
1.3564e-06
1.3564e-06
1.35969e-06
1.36146e-06
1.36158e-06
1.35959e-06
1.3564e-06
1.3564e-06
1.3564e-06
1.3564e-06
1.3564e-06
1.3564e-06
1.3596e-06
1.36119e-06
1.36145e-06
1.35956e-06
1.3564e-06
1.3564e-06
1.3564e-06
1.3564e-06
1.3564e-06
1.3564e-06
1.35957e-06
1.35998e-06
1.35965e-06
1.3564e-06
1.3564e-06
1.3564e-06
1.3564e-06
1.3564e-06
1.3564e-06
1.35964e-06
1.36135e-06
1.36121e-06
1.3592e-06
1.3564e-06
1.3564e-06
1.3564e-06
1.3564e-06
1.35915e-06
1.3598e-06
1.36151e-06
1.36146e-06
1.35984e-06
1.35969e-06
1.3596e-06
1.35957e-06
1.35964e-06
1.3598e-06
1.36145e-06
1.36146e-06
1.36119e-06
1.35998e-06
1.36135e-06
1.36151e-06
1.34505e-06
1.34491e-06
1.34483e-06
1.34316e-06
1.34307e-06
1.34303e-06
1.34312e-06
1.34468e-06
1.34493e-06
1.34483e-06
1.34269e-06
1.33987e-06
1.33987e-06
1.33987e-06
1.33987e-06
1.34267e-06
1.34331e-06
1.34316e-06
1.33987e-06
1.33987e-06
1.33987e-06
1.33987e-06
1.33987e-06
1.33987e-06
1.34316e-06
1.34494e-06
1.34505e-06
1.34306e-06
1.33987e-06
1.33987e-06
1.33987e-06
1.33987e-06
1.33987e-06
1.33987e-06
1.34307e-06
1.34466e-06
1.34492e-06
1.34302e-06
1.33987e-06
1.33987e-06
1.33987e-06
1.33987e-06
1.33987e-06
1.33987e-06
1.34304e-06
1.34345e-06
1.34312e-06
1.33987e-06
1.33987e-06
1.33987e-06
1.33987e-06
1.33987e-06
1.33987e-06
1.34311e-06
1.34482e-06
1.34469e-06
1.34267e-06
1.33987e-06
1.33987e-06
1.33987e-06
1.33987e-06
1.34262e-06
1.34327e-06
1.34498e-06
1.34493e-06
1.34331e-06
1.34316e-06
1.34307e-06
1.34304e-06
1.34311e-06
1.34327e-06
1.34492e-06
1.34494e-06
1.34467e-06
1.34345e-06
1.34482e-06
1.34498e-06
1.32852e-06
1.32838e-06
1.3283e-06
1.32663e-06
1.32654e-06
1.3265e-06
1.32659e-06
1.32816e-06
1.3284e-06
1.3283e-06
1.32617e-06
1.32334e-06
1.32334e-06
1.32334e-06
1.32334e-06
1.32614e-06
1.32678e-06
1.32663e-06
1.32334e-06
1.32334e-06
1.32334e-06
1.32334e-06
1.32334e-06
1.32334e-06
1.32663e-06
1.32841e-06
1.32852e-06
1.32654e-06
1.32334e-06
1.32334e-06
1.32334e-06
1.32334e-06
1.32334e-06
1.32334e-06
1.32655e-06
1.32814e-06
1.32838e-06
1.3265e-06
1.32334e-06
1.32334e-06
1.32334e-06
1.32334e-06
1.32334e-06
1.32334e-06
1.32651e-06
1.32692e-06
1.32659e-06
1.32334e-06
1.32334e-06
1.32334e-06
1.32334e-06
1.32334e-06
1.32334e-06
1.32658e-06
1.32829e-06
1.32816e-06
1.32614e-06
1.32334e-06
1.32334e-06
1.32334e-06
1.32334e-06
1.32609e-06
1.32674e-06
1.32845e-06
1.3284e-06
1.32678e-06
1.32663e-06
1.32655e-06
1.32651e-06
1.32658e-06
1.32674e-06
1.32839e-06
1.32841e-06
1.32814e-06
1.32692e-06
1.32829e-06
1.32845e-06
1.31199e-06
1.31185e-06
1.31177e-06
1.31011e-06
1.31001e-06
1.30997e-06
1.31006e-06
1.31163e-06
1.31187e-06
1.31177e-06
1.30964e-06
1.30681e-06
1.30681e-06
1.30681e-06
1.30681e-06
1.30962e-06
1.31025e-06
1.31011e-06
1.30681e-06
1.30681e-06
1.30681e-06
1.30681e-06
1.30681e-06
1.30681e-06
1.3101e-06
1.31188e-06
1.312e-06
1.31001e-06
1.30681e-06
1.30681e-06
1.30681e-06
1.30681e-06
1.30681e-06
1.30681e-06
1.31002e-06
1.31161e-06
1.31185e-06
1.30997e-06
1.30681e-06
1.30681e-06
1.30681e-06
1.30681e-06
1.30681e-06
1.30681e-06
1.30998e-06
1.31039e-06
1.31006e-06
1.30681e-06
1.30681e-06
1.30681e-06
1.30681e-06
1.30681e-06
1.30681e-06
1.31006e-06
1.31176e-06
1.31163e-06
1.30962e-06
1.30681e-06
1.30681e-06
1.30681e-06
1.30681e-06
1.30957e-06
1.31021e-06
1.31192e-06
1.31187e-06
1.31025e-06
1.3101e-06
1.31002e-06
1.30998e-06
1.31006e-06
1.31021e-06
1.31186e-06
1.31188e-06
1.31161e-06
1.31039e-06
1.31176e-06
1.31192e-06
1.29547e-06
1.29532e-06
1.29524e-06
1.29358e-06
1.29348e-06
1.29344e-06
1.29353e-06
1.2951e-06
1.29534e-06
1.29524e-06
1.29311e-06
1.29028e-06
1.29028e-06
1.29028e-06
1.29028e-06
1.29309e-06
1.29372e-06
1.29358e-06
1.29028e-06
1.29028e-06
1.29028e-06
1.29028e-06
1.29028e-06
1.29028e-06
1.29357e-06
1.29535e-06
1.29547e-06
1.29348e-06
1.29028e-06
1.29028e-06
1.29028e-06
1.29028e-06
1.29028e-06
1.29028e-06
1.29349e-06
1.29508e-06
1.29532e-06
1.29344e-06
1.29028e-06
1.29028e-06
1.29028e-06
1.29028e-06
1.29028e-06
1.29028e-06
1.29345e-06
1.29386e-06
1.29353e-06
1.29028e-06
1.29028e-06
1.29028e-06
1.29028e-06
1.29028e-06
1.29028e-06
1.29353e-06
1.29523e-06
1.2951e-06
1.29309e-06
1.29028e-06
1.29028e-06
1.29028e-06
1.29028e-06
1.29304e-06
1.29368e-06
1.29539e-06
1.29534e-06
1.29372e-06
1.29357e-06
1.29349e-06
1.29345e-06
1.29353e-06
1.29368e-06
1.29533e-06
1.29535e-06
1.29508e-06
1.29386e-06
1.29523e-06
1.29539e-06
1.27894e-06
1.2788e-06
1.27871e-06
1.27705e-06
1.27695e-06
1.27691e-06
1.27701e-06
1.27857e-06
1.27882e-06
1.27871e-06
1.27658e-06
1.27375e-06
1.27375e-06
1.27375e-06
1.27375e-06
1.27656e-06
1.27719e-06
1.27705e-06
1.27375e-06
1.27375e-06
1.27375e-06
1.27375e-06
1.27375e-06
1.27375e-06
1.27704e-06
1.27882e-06
1.27894e-06
1.27695e-06
1.27375e-06
1.27375e-06
1.27375e-06
1.27375e-06
1.27375e-06
1.27375e-06
1.27696e-06
1.27855e-06
1.27879e-06
1.27691e-06
1.27375e-06
1.27375e-06
1.27375e-06
1.27375e-06
1.27375e-06
1.27375e-06
1.27692e-06
1.27733e-06
1.27701e-06
1.27375e-06
1.27375e-06
1.27375e-06
1.27375e-06
1.27375e-06
1.27375e-06
1.277e-06
1.2787e-06
1.27857e-06
1.27656e-06
1.27375e-06
1.27375e-06
1.27375e-06
1.27375e-06
1.27651e-06
1.27716e-06
1.27886e-06
1.27882e-06
1.27719e-06
1.27704e-06
1.27696e-06
1.27692e-06
1.277e-06
1.27716e-06
1.2788e-06
1.27882e-06
1.27855e-06
1.27733e-06
1.27871e-06
1.27886e-06
1.26241e-06
1.26227e-06
1.26219e-06
1.26052e-06
1.26042e-06
1.26039e-06
1.26048e-06
1.26204e-06
1.26229e-06
1.26219e-06
1.26005e-06
1.25723e-06
1.25723e-06
1.25723e-06
1.25723e-06
1.26003e-06
1.26066e-06
1.26052e-06
1.25723e-06
1.25723e-06
1.25723e-06
1.25723e-06
1.25723e-06
1.25723e-06
1.26051e-06
1.26229e-06
1.26241e-06
1.26042e-06
1.25723e-06
1.25723e-06
1.25723e-06
1.25723e-06
1.25723e-06
1.25723e-06
1.26043e-06
1.26202e-06
1.26227e-06
1.26039e-06
1.25723e-06
1.25723e-06
1.25723e-06
1.25723e-06
1.25723e-06
1.25723e-06
1.26039e-06
1.26081e-06
1.26048e-06
1.25723e-06
1.25723e-06
1.25723e-06
1.25723e-06
1.25723e-06
1.25723e-06
1.26047e-06
1.26218e-06
1.26204e-06
1.26003e-06
1.25723e-06
1.25723e-06
1.25723e-06
1.25723e-06
1.25998e-06
1.26063e-06
1.26234e-06
1.26229e-06
1.26066e-06
1.26051e-06
1.26043e-06
1.26039e-06
1.26047e-06
1.26063e-06
1.26228e-06
1.26229e-06
1.26202e-06
1.26081e-06
1.26217e-06
1.26234e-06
1.24588e-06
1.24574e-06
1.24566e-06
1.24399e-06
1.2439e-06
1.24386e-06
1.24395e-06
1.24551e-06
1.24576e-06
1.24566e-06
1.24352e-06
1.2407e-06
1.2407e-06
1.2407e-06
1.2407e-06
1.2435e-06
1.24414e-06
1.24399e-06
1.2407e-06
1.2407e-06
1.2407e-06
1.2407e-06
1.2407e-06
1.2407e-06
1.24398e-06
1.24576e-06
1.24588e-06
1.2439e-06
1.2407e-06
1.2407e-06
1.2407e-06
1.2407e-06
1.2407e-06
1.2407e-06
1.2439e-06
1.24549e-06
1.24574e-06
1.24386e-06
1.2407e-06
1.2407e-06
1.2407e-06
1.2407e-06
1.2407e-06
1.2407e-06
1.24387e-06
1.24428e-06
1.24395e-06
1.2407e-06
1.2407e-06
1.2407e-06
1.2407e-06
1.2407e-06
1.2407e-06
1.24394e-06
1.24565e-06
1.24551e-06
1.2435e-06
1.2407e-06
1.2407e-06
1.2407e-06
1.2407e-06
1.24345e-06
1.2441e-06
1.24581e-06
1.24576e-06
1.24414e-06
1.24399e-06
1.2439e-06
1.24387e-06
1.24394e-06
1.2441e-06
1.24575e-06
1.24576e-06
1.24549e-06
1.24428e-06
1.24565e-06
1.24581e-06
1.22935e-06
1.22921e-06
1.22913e-06
1.22746e-06
1.22737e-06
1.22733e-06
1.22742e-06
1.22898e-06
1.22923e-06
1.22913e-06
1.22699e-06
1.22417e-06
1.22417e-06
1.22417e-06
1.22417e-06
1.22697e-06
1.22761e-06
1.22746e-06
1.22417e-06
1.22417e-06
1.22417e-06
1.22417e-06
1.22417e-06
1.22417e-06
1.22746e-06
1.22923e-06
1.22935e-06
1.22737e-06
1.22417e-06
1.22417e-06
1.22417e-06
1.22417e-06
1.22417e-06
1.22417e-06
1.22737e-06
1.22896e-06
1.22921e-06
1.22733e-06
1.22417e-06
1.22417e-06
1.22417e-06
1.22417e-06
1.22417e-06
1.22417e-06
1.22734e-06
1.22775e-06
1.22742e-06
1.22417e-06
1.22417e-06
1.22417e-06
1.22417e-06
1.22417e-06
1.22417e-06
1.22741e-06
1.22912e-06
1.22898e-06
1.22697e-06
1.22417e-06
1.22417e-06
1.22417e-06
1.22417e-06
1.22692e-06
1.22757e-06
1.22928e-06
1.22923e-06
1.22761e-06
1.22746e-06
1.22737e-06
1.22734e-06
1.22741e-06
1.22757e-06
1.22922e-06
1.22924e-06
1.22897e-06
1.22774e-06
1.22912e-06
1.22928e-06
1.21282e-06
1.21268e-06
1.2126e-06
1.21093e-06
1.21084e-06
1.2108e-06
1.21089e-06
1.21246e-06
1.2127e-06
1.2126e-06
1.21047e-06
1.20764e-06
1.20764e-06
1.20764e-06
1.20764e-06
1.21044e-06
1.21108e-06
1.21093e-06
1.20764e-06
1.20764e-06
1.20764e-06
1.20764e-06
1.20764e-06
1.20764e-06
1.21093e-06
1.21271e-06
1.21282e-06
1.21084e-06
1.20764e-06
1.20764e-06
1.20764e-06
1.20764e-06
1.20764e-06
1.20764e-06
1.21085e-06
1.21244e-06
1.21268e-06
1.2108e-06
1.20764e-06
1.20764e-06
1.20764e-06
1.20764e-06
1.20764e-06
1.20764e-06
1.21081e-06
1.21122e-06
1.21089e-06
1.20764e-06
1.20764e-06
1.20764e-06
1.20764e-06
1.20764e-06
1.20764e-06
1.21088e-06
1.21259e-06
1.21246e-06
1.21044e-06
1.20764e-06
1.20764e-06
1.20764e-06
1.20764e-06
1.21039e-06
1.21104e-06
1.21275e-06
1.2127e-06
1.21108e-06
1.21093e-06
1.21084e-06
1.21081e-06
1.21089e-06
1.21104e-06
1.21269e-06
1.21271e-06
1.21244e-06
1.21122e-06
1.21259e-06
1.21275e-06
1.19629e-06
1.19615e-06
1.19607e-06
1.19441e-06
1.19431e-06
1.19427e-06
1.19436e-06
1.19593e-06
1.19617e-06
1.19607e-06
1.19394e-06
1.19111e-06
1.19111e-06
1.19111e-06
1.19111e-06
1.19392e-06
1.19455e-06
1.19441e-06
1.19111e-06
1.19111e-06
1.19111e-06
1.19111e-06
1.19111e-06
1.19111e-06
1.1944e-06
1.19618e-06
1.19629e-06
1.19431e-06
1.19111e-06
1.19111e-06
1.19111e-06
1.19111e-06
1.19111e-06
1.19111e-06
1.19432e-06
1.19591e-06
1.19615e-06
1.19427e-06
1.19111e-06
1.19111e-06
1.19111e-06
1.19111e-06
1.19111e-06
1.19111e-06
1.19428e-06
1.19469e-06
1.19436e-06
1.19111e-06
1.19111e-06
1.19111e-06
1.19111e-06
1.19111e-06
1.19111e-06
1.19436e-06
1.19606e-06
1.19593e-06
1.19392e-06
1.19111e-06
1.19111e-06
1.19111e-06
1.19111e-06
1.19387e-06
1.19451e-06
1.19622e-06
1.19617e-06
1.19455e-06
1.1944e-06
1.19432e-06
1.19428e-06
1.19436e-06
1.19451e-06
1.19616e-06
1.19618e-06
1.19591e-06
1.19469e-06
1.19606e-06
1.19622e-06
1.17977e-06
1.17962e-06
1.17954e-06
1.17788e-06
1.17778e-06
1.17774e-06
1.17783e-06
1.1794e-06
1.17964e-06
1.17954e-06
1.17741e-06
1.17458e-06
1.17458e-06
1.17458e-06
1.17458e-06
1.17739e-06
1.17802e-06
1.17788e-06
1.17458e-06
1.17458e-06
1.17458e-06
1.17458e-06
1.17458e-06
1.17458e-06
1.17787e-06
1.17965e-06
1.17977e-06
1.17778e-06
1.17458e-06
1.17458e-06
1.17458e-06
1.17458e-06
1.17458e-06
1.17458e-06
1.17779e-06
1.17938e-06
1.17962e-06
1.17774e-06
1.17458e-06
1.17458e-06
1.17458e-06
1.17458e-06
1.17458e-06
1.17458e-06
1.17775e-06
1.17816e-06
1.17783e-06
1.17458e-06
1.17458e-06
1.17458e-06
1.17458e-06
1.17458e-06
1.17458e-06
1.17783e-06
1.17953e-06
1.1794e-06
1.17739e-06
1.17458e-06
1.17458e-06
1.17458e-06
1.17458e-06
1.17734e-06
1.17798e-06
1.17969e-06
1.17964e-06
1.17802e-06
1.17787e-06
1.17779e-06
1.17775e-06
1.17783e-06
1.17798e-06
1.17963e-06
1.17965e-06
1.17938e-06
1.17816e-06
1.17953e-06
1.17969e-06
1.16324e-06
1.16309e-06
1.16301e-06
1.16135e-06
1.16125e-06
1.16121e-06
1.16131e-06
1.16287e-06
1.16311e-06
1.16301e-06
1.16088e-06
1.15805e-06
1.15805e-06
1.15805e-06
1.15805e-06
1.16086e-06
1.16149e-06
1.16135e-06
1.15805e-06
1.15805e-06
1.15805e-06
1.15805e-06
1.15805e-06
1.15805e-06
1.16134e-06
1.16312e-06
1.16324e-06
1.16125e-06
1.15805e-06
1.15805e-06
1.15805e-06
1.15805e-06
1.15805e-06
1.15805e-06
1.16126e-06
1.16285e-06
1.1631e-06
1.16121e-06
1.15805e-06
1.15805e-06
1.15805e-06
1.15805e-06
1.15805e-06
1.15805e-06
1.16122e-06
1.16163e-06
1.16131e-06
1.15805e-06
1.15805e-06
1.15805e-06
1.15805e-06
1.15805e-06
1.15805e-06
1.1613e-06
1.163e-06
1.16287e-06
1.16086e-06
1.15805e-06
1.15805e-06
1.15805e-06
1.15805e-06
1.16081e-06
1.16146e-06
1.16316e-06
1.16312e-06
1.16149e-06
1.16134e-06
1.16126e-06
1.16122e-06
1.1613e-06
1.16146e-06
1.1631e-06
1.16312e-06
1.16285e-06
1.16163e-06
1.163e-06
1.16316e-06
1.14671e-06
1.14657e-06
1.14649e-06
1.14482e-06
1.14472e-06
1.14468e-06
1.14478e-06
1.14634e-06
1.14659e-06
1.14649e-06
1.14435e-06
1.14153e-06
1.14153e-06
1.14153e-06
1.14153e-06
1.14433e-06
1.14496e-06
1.14482e-06
1.14153e-06
1.14153e-06
1.14153e-06
1.14153e-06
1.14153e-06
1.14153e-06
1.14481e-06
1.14659e-06
1.14671e-06
1.14472e-06
1.14153e-06
1.14153e-06
1.14153e-06
1.14153e-06
1.14153e-06
1.14153e-06
1.14473e-06
1.14632e-06
1.14657e-06
1.14469e-06
1.14153e-06
1.14153e-06
1.14153e-06
1.14153e-06
1.14153e-06
1.14153e-06
1.14469e-06
1.14511e-06
1.14478e-06
1.14153e-06
1.14153e-06
1.14153e-06
1.14153e-06
1.14153e-06
1.14153e-06
1.14477e-06
1.14647e-06
1.14634e-06
1.14433e-06
1.14153e-06
1.14153e-06
1.14153e-06
1.14153e-06
1.14428e-06
1.14493e-06
1.14664e-06
1.14659e-06
1.14496e-06
1.14481e-06
1.14473e-06
1.14469e-06
1.14477e-06
1.14493e-06
1.14658e-06
1.14659e-06
1.14632e-06
1.14511e-06
1.14647e-06
1.14664e-06
1.13018e-06
1.13004e-06
1.12996e-06
1.12829e-06
1.12819e-06
1.12816e-06
1.12825e-06
1.12981e-06
1.13006e-06
1.12996e-06
1.12782e-06
1.125e-06
1.125e-06
1.125e-06
1.125e-06
1.1278e-06
1.12844e-06
1.12829e-06
1.125e-06
1.125e-06
1.125e-06
1.125e-06
1.125e-06
1.125e-06
1.12828e-06
1.13006e-06
1.13018e-06
1.1282e-06
1.125e-06
1.125e-06
1.125e-06
1.125e-06
1.125e-06
1.125e-06
1.1282e-06
1.12979e-06
1.13004e-06
1.12816e-06
1.125e-06
1.125e-06
1.125e-06
1.125e-06
1.125e-06
1.125e-06
1.12817e-06
1.12858e-06
1.12825e-06
1.125e-06
1.125e-06
1.125e-06
1.125e-06
1.125e-06
1.125e-06
1.12824e-06
1.12995e-06
1.12981e-06
1.1278e-06
1.125e-06
1.125e-06
1.125e-06
1.125e-06
1.12775e-06
1.1284e-06
1.13011e-06
1.13006e-06
1.12843e-06
1.12828e-06
1.1282e-06
1.12817e-06
1.12824e-06
1.1284e-06
1.13005e-06
1.13006e-06
1.12979e-06
1.12858e-06
1.12995e-06
1.13011e-06
1.11365e-06
1.11351e-06
1.11343e-06
1.11176e-06
1.11167e-06
1.11163e-06
1.11172e-06
1.11328e-06
1.11353e-06
1.11343e-06
1.11129e-06
1.10847e-06
1.10847e-06
1.10847e-06
1.10847e-06
1.11127e-06
1.11191e-06
1.11176e-06
1.10847e-06
1.10847e-06
1.10847e-06
1.10847e-06
1.10847e-06
1.10847e-06
1.11176e-06
1.11353e-06
1.11365e-06
1.11167e-06
1.10847e-06
1.10847e-06
1.10847e-06
1.10847e-06
1.10847e-06
1.10847e-06
1.11167e-06
1.11326e-06
1.11351e-06
1.11163e-06
1.10847e-06
1.10847e-06
1.10847e-06
1.10847e-06
1.10847e-06
1.10847e-06
1.11164e-06
1.11205e-06
1.11172e-06
1.10847e-06
1.10847e-06
1.10847e-06
1.10847e-06
1.10847e-06
1.10847e-06
1.11171e-06
1.11342e-06
1.11328e-06
1.11127e-06
1.10847e-06
1.10847e-06
1.10847e-06
1.10847e-06
1.11122e-06
1.11187e-06
1.11358e-06
1.11353e-06
1.11191e-06
1.11176e-06
1.11167e-06
1.11164e-06
1.11171e-06
1.11187e-06
1.11352e-06
1.11353e-06
1.11326e-06
1.11205e-06
1.11342e-06
1.11358e-06
1.09712e-06
1.09698e-06
1.0969e-06
1.09523e-06
1.09514e-06
1.0951e-06
1.09519e-06
1.09676e-06
1.097e-06
1.0969e-06
1.09477e-06
1.09194e-06
1.09194e-06
1.09194e-06
1.09194e-06
1.09474e-06
1.09538e-06
1.09524e-06
1.09194e-06
1.09194e-06
1.09194e-06
1.09194e-06
1.09194e-06
1.09194e-06
1.09523e-06
1.09701e-06
1.09712e-06
1.09514e-06
1.09194e-06
1.09194e-06
1.09194e-06
1.09194e-06
1.09194e-06
1.09194e-06
1.09515e-06
1.09674e-06
1.09698e-06
1.0951e-06
1.09194e-06
1.09194e-06
1.09194e-06
1.09194e-06
1.09194e-06
1.09194e-06
1.09511e-06
1.09552e-06
1.09519e-06
1.09194e-06
1.09194e-06
1.09194e-06
1.09194e-06
1.09194e-06
1.09194e-06
1.09518e-06
1.09689e-06
1.09676e-06
1.09474e-06
1.09194e-06
1.09194e-06
1.09194e-06
1.09194e-06
1.09469e-06
1.09534e-06
1.09705e-06
1.097e-06
1.09538e-06
1.09523e-06
1.09515e-06
1.09511e-06
1.09518e-06
1.09534e-06
1.09699e-06
1.09701e-06
1.09674e-06
1.09552e-06
1.09689e-06
1.09705e-06
1.08059e-06
1.08045e-06
1.08037e-06
1.07871e-06
1.07861e-06
1.07857e-06
1.07866e-06
1.08023e-06
1.08047e-06
1.08037e-06
1.07824e-06
1.07541e-06
1.07541e-06
1.07541e-06
1.07541e-06
1.07822e-06
1.07885e-06
1.07871e-06
1.07541e-06
1.07541e-06
1.07541e-06
1.07541e-06
1.07541e-06
1.07541e-06
1.0787e-06
1.08048e-06
1.08059e-06
1.07861e-06
1.07541e-06
1.07541e-06
1.07541e-06
1.07541e-06
1.07541e-06
1.07541e-06
1.07862e-06
1.08021e-06
1.08045e-06
1.07857e-06
1.07541e-06
1.07541e-06
1.07541e-06
1.07541e-06
1.07541e-06
1.07541e-06
1.07858e-06
1.07899e-06
1.07866e-06
1.07541e-06
1.07541e-06
1.07541e-06
1.07541e-06
1.07541e-06
1.07541e-06
1.07866e-06
1.08036e-06
1.08023e-06
1.07822e-06
1.07541e-06
1.07541e-06
1.07541e-06
1.07541e-06
1.07817e-06
1.07881e-06
1.08052e-06
1.08047e-06
1.07885e-06
1.0787e-06
1.07862e-06
1.07858e-06
1.07866e-06
1.07881e-06
1.08046e-06
1.08048e-06
1.08021e-06
1.07899e-06
1.08036e-06
1.08052e-06
1.06407e-06
1.06392e-06
1.06384e-06
1.06218e-06
1.06208e-06
1.06204e-06
1.06213e-06
1.0637e-06
1.06394e-06
1.06384e-06
1.06171e-06
1.05888e-06
1.05888e-06
1.05888e-06
1.05888e-06
1.06169e-06
1.06232e-06
1.06218e-06
1.05888e-06
1.05888e-06
1.05888e-06
1.05888e-06
1.05888e-06
1.05888e-06
1.06217e-06
1.06395e-06
1.06407e-06
1.06208e-06
1.05888e-06
1.05888e-06
1.05888e-06
1.05888e-06
1.05888e-06
1.05888e-06
1.06209e-06
1.06368e-06
1.06392e-06
1.06204e-06
1.05888e-06
1.05888e-06
1.05888e-06
1.05888e-06
1.05888e-06
1.05888e-06
1.06205e-06
1.06246e-06
1.06213e-06
1.05888e-06
1.05888e-06
1.05888e-06
1.05888e-06
1.05888e-06
1.05888e-06
1.06213e-06
1.06383e-06
1.0637e-06
1.06169e-06
1.05888e-06
1.05888e-06
1.05888e-06
1.05888e-06
1.06164e-06
1.06228e-06
1.06399e-06
1.06394e-06
1.06232e-06
1.06217e-06
1.06209e-06
1.06205e-06