/*--------------------------------*- C++ -*----------------------------------*\
| =========                 |                                                 |
| \\      /  F ield         | OpenFOAM: The Open Source CFD Toolbox           |
|  \\    /   O peration     | Version:  v2012                                 |
|   \\  /    A nd           | Website:  www.openfoam.com                      |
|    \\/     M anipulation  |                                                 |
\*---------------------------------------------------------------------------*/
FoamFile
{
    version     2.0;
    format      ascii;
    class       volScalarField;
    location    "7.5";
    object      p;
}
// * * * * * * * * * * * * * * * * * * * * * * * * * * * * * * * * * * * * * //

dimensions      [0 2 -2 0 0 0 0];


internalField   nonuniform List<scalar> 
244288
(
1.60348e-06
1.60379e-06
1.60374e-06
1.60357e-06
1.60349e-06
1.60359e-06
1.60376e-06
1.60379e-06
1.6038e-06
1.60355e-06
1.60326e-06
1.60315e-06
1.60329e-06
1.60359e-06
1.60381e-06
1.60374e-06
1.60355e-06
1.60311e-06
1.60272e-06
1.60259e-06
1.60276e-06
1.60317e-06
1.6036e-06
1.60374e-06
1.60357e-06
1.60326e-06
1.60272e-06
1.60229e-06
1.60214e-06
1.60233e-06
1.60279e-06
1.60332e-06
1.60358e-06
1.60348e-06
1.60349e-06
1.60315e-06
1.60259e-06
1.60214e-06
1.60199e-06
1.60218e-06
1.60266e-06
1.60321e-06
1.6035e-06
1.60359e-06
1.60329e-06
1.60276e-06
1.60233e-06
1.60218e-06
1.60237e-06
1.60283e-06
1.60335e-06
1.6036e-06
1.60376e-06
1.60359e-06
1.60317e-06
1.60279e-06
1.60266e-06
1.60283e-06
1.60323e-06
1.60363e-06
1.60375e-06
1.60381e-06
1.6036e-06
1.60332e-06
1.60321e-06
1.60335e-06
1.60363e-06
1.60381e-06
1.60374e-06
1.60358e-06
1.6035e-06
1.6036e-06
1.60375e-06
1.57748e-06
1.57705e-06
1.57673e-06
1.57528e-06
1.57518e-06
1.57519e-06
1.57521e-06
1.57664e-06
1.5768e-06
1.57673e-06
1.57486e-06
1.57227e-06
1.5723e-06
1.5723e-06
1.57227e-06
1.57478e-06
1.57526e-06
1.57528e-06
1.57227e-06
1.57223e-06
1.57227e-06
1.57227e-06
1.57223e-06
1.57227e-06
1.57509e-06
1.57691e-06
1.57748e-06
1.57518e-06
1.5723e-06
1.57227e-06
1.57232e-06
1.57232e-06
1.57227e-06
1.57229e-06
1.57497e-06
1.5767e-06
1.57705e-06
1.57519e-06
1.5723e-06
1.57227e-06
1.57232e-06
1.57232e-06
1.57227e-06
1.57229e-06
1.57493e-06
1.57546e-06
1.57521e-06
1.57227e-06
1.57223e-06
1.57227e-06
1.57227e-06
1.57223e-06
1.57227e-06
1.57501e-06
1.57677e-06
1.57664e-06
1.57478e-06
1.57227e-06
1.5723e-06
1.5723e-06
1.57227e-06
1.57454e-06
1.57523e-06
1.57694e-06
1.5768e-06
1.57526e-06
1.57509e-06
1.57497e-06
1.57493e-06
1.57501e-06
1.57523e-06
1.57695e-06
1.57691e-06
1.57671e-06
1.57546e-06
1.57677e-06
1.57694e-06
1.56057e-06
1.56042e-06
1.56039e-06
1.55873e-06
1.55862e-06
1.55859e-06
1.55867e-06
1.56023e-06
1.56048e-06
1.56039e-06
1.55832e-06
1.55545e-06
1.55544e-06
1.55544e-06
1.55545e-06
1.55825e-06
1.55884e-06
1.55872e-06
1.55545e-06
1.55543e-06
1.55543e-06
1.55543e-06
1.55543e-06
1.55545e-06
1.55864e-06
1.56046e-06
1.56056e-06
1.55862e-06
1.55544e-06
1.55543e-06
1.55543e-06
1.55543e-06
1.55543e-06
1.55544e-06
1.55849e-06
1.56016e-06
1.56042e-06
1.55859e-06
1.55544e-06
1.55543e-06
1.55543e-06
1.55543e-06
1.55543e-06
1.55544e-06
1.55844e-06
1.55893e-06
1.55866e-06
1.55545e-06
1.55543e-06
1.55543e-06
1.55543e-06
1.55543e-06
1.55545e-06
1.55856e-06
1.56031e-06
1.56023e-06
1.55825e-06
1.55545e-06
1.55544e-06
1.55544e-06
1.55545e-06
1.55806e-06
1.55877e-06
1.56051e-06
1.56048e-06
1.55883e-06
1.55863e-06
1.55849e-06
1.55844e-06
1.55855e-06
1.55877e-06
1.56045e-06
1.56045e-06
1.56016e-06
1.55893e-06
1.56031e-06
1.56051e-06
1.54394e-06
1.54379e-06
1.54372e-06
1.54205e-06
1.54195e-06
1.54191e-06
1.542e-06
1.54357e-06
1.54381e-06
1.54372e-06
1.5416e-06
1.53873e-06
1.53873e-06
1.53873e-06
1.53873e-06
1.54155e-06
1.54218e-06
1.54205e-06
1.53873e-06
1.53872e-06
1.53872e-06
1.53872e-06
1.53872e-06
1.53873e-06
1.542e-06
1.54381e-06
1.54394e-06
1.54195e-06
1.53872e-06
1.53872e-06
1.53872e-06
1.53872e-06
1.53872e-06
1.53873e-06
1.5419e-06
1.54353e-06
1.54379e-06
1.54191e-06
1.53872e-06
1.53872e-06
1.53872e-06
1.53872e-06
1.53872e-06
1.53873e-06
1.54186e-06
1.5423e-06
1.542e-06
1.53873e-06
1.53872e-06
1.53872e-06
1.53872e-06
1.53872e-06
1.53873e-06
1.54195e-06
1.54368e-06
1.54357e-06
1.54155e-06
1.53873e-06
1.53872e-06
1.53872e-06
1.53873e-06
1.54144e-06
1.54212e-06
1.54386e-06
1.54381e-06
1.54218e-06
1.542e-06
1.5419e-06
1.54186e-06
1.54195e-06
1.54212e-06
1.54375e-06
1.54381e-06
1.54353e-06
1.5423e-06
1.54368e-06
1.54386e-06
1.52725e-06
1.52711e-06
1.52702e-06
1.52535e-06
1.52525e-06
1.52521e-06
1.5253e-06
1.52687e-06
1.52712e-06
1.52702e-06
1.52489e-06
1.52202e-06
1.52202e-06
1.52202e-06
1.52202e-06
1.52485e-06
1.52548e-06
1.52535e-06
1.52202e-06
1.52202e-06
1.52202e-06
1.52202e-06
1.52202e-06
1.52202e-06
1.52531e-06
1.52712e-06
1.52725e-06
1.52525e-06
1.52202e-06
1.52202e-06
1.52202e-06
1.52202e-06
1.52202e-06
1.52202e-06
1.52522e-06
1.52684e-06
1.52711e-06
1.52521e-06
1.52202e-06
1.52202e-06
1.52202e-06
1.52202e-06
1.52202e-06
1.52202e-06
1.52518e-06
1.52562e-06
1.5253e-06
1.52202e-06
1.52202e-06
1.52202e-06
1.52202e-06
1.52202e-06
1.52202e-06
1.52526e-06
1.52699e-06
1.52687e-06
1.52485e-06
1.52202e-06
1.52202e-06
1.52202e-06
1.52202e-06
1.52476e-06
1.52543e-06
1.52717e-06
1.52712e-06
1.52548e-06
1.52531e-06
1.52522e-06
1.52518e-06
1.52526e-06
1.52543e-06
1.52705e-06
1.52712e-06
1.52684e-06
1.52562e-06
1.52699e-06
1.52717e-06
1.51055e-06
1.51041e-06
1.51033e-06
1.50865e-06
1.50855e-06
1.50851e-06
1.5086e-06
1.51017e-06
1.51042e-06
1.51033e-06
1.50819e-06
1.50531e-06
1.50531e-06
1.50531e-06
1.50531e-06
1.50814e-06
1.50878e-06
1.50865e-06
1.50531e-06
1.50531e-06
1.50531e-06
1.50531e-06
1.50531e-06
1.50531e-06
1.50861e-06
1.51042e-06
1.51055e-06
1.50855e-06
1.50531e-06
1.50531e-06
1.50531e-06
1.50531e-06
1.50531e-06
1.50531e-06
1.50852e-06
1.51015e-06
1.51041e-06
1.50851e-06
1.50531e-06
1.50531e-06
1.50531e-06
1.50531e-06
1.50531e-06
1.50531e-06
1.50848e-06
1.50892e-06
1.5086e-06
1.50531e-06
1.50531e-06
1.50531e-06
1.50531e-06
1.50531e-06
1.50531e-06
1.50857e-06
1.51029e-06
1.51017e-06
1.50814e-06
1.50531e-06
1.50531e-06
1.50531e-06
1.50531e-06
1.50806e-06
1.50873e-06
1.51047e-06
1.51042e-06
1.50878e-06
1.50861e-06
1.50852e-06
1.50848e-06
1.50857e-06
1.50873e-06
1.51035e-06
1.51042e-06
1.51015e-06
1.50892e-06
1.51029e-06
1.51047e-06
1.49385e-06
1.49371e-06
1.49362e-06
1.49195e-06
1.49185e-06
1.49181e-06
1.4919e-06
1.49347e-06
1.49372e-06
1.49363e-06
1.49148e-06
1.48861e-06
1.48861e-06
1.48861e-06
1.48861e-06
1.49144e-06
1.49208e-06
1.49195e-06
1.48861e-06
1.48861e-06
1.48861e-06
1.48861e-06
1.48861e-06
1.48861e-06
1.49191e-06
1.49372e-06
1.49385e-06
1.49184e-06
1.48861e-06
1.48861e-06
1.48861e-06
1.48861e-06
1.48861e-06
1.48861e-06
1.49182e-06
1.49344e-06
1.49371e-06
1.49181e-06
1.48861e-06
1.48861e-06
1.48861e-06
1.48861e-06
1.48861e-06
1.48861e-06
1.49178e-06
1.49222e-06
1.4919e-06
1.48861e-06
1.48861e-06
1.48861e-06
1.48861e-06
1.48861e-06
1.48861e-06
1.49186e-06
1.49359e-06
1.49347e-06
1.49144e-06
1.48861e-06
1.48861e-06
1.48861e-06
1.48861e-06
1.49136e-06
1.49203e-06
1.49377e-06
1.49372e-06
1.49208e-06
1.49191e-06
1.49182e-06
1.49178e-06
1.49186e-06
1.49203e-06
1.49364e-06
1.49372e-06
1.49344e-06
1.49222e-06
1.49359e-06
1.49377e-06
1.47715e-06
1.47701e-06
1.47692e-06
1.47524e-06
1.47514e-06
1.47511e-06
1.4752e-06
1.47677e-06
1.47702e-06
1.47692e-06
1.47478e-06
1.47191e-06
1.47191e-06
1.47191e-06
1.47191e-06
1.47474e-06
1.47538e-06
1.47524e-06
1.47191e-06
1.47191e-06
1.47191e-06
1.47191e-06
1.47191e-06
1.47191e-06
1.47521e-06
1.47702e-06
1.47715e-06
1.47514e-06
1.47191e-06
1.47191e-06
1.47191e-06
1.47191e-06
1.47191e-06
1.47191e-06
1.47512e-06
1.47674e-06
1.47701e-06
1.47511e-06
1.47191e-06
1.47191e-06
1.47191e-06
1.47191e-06
1.47191e-06
1.47191e-06
1.47508e-06
1.47552e-06
1.4752e-06
1.47191e-06
1.47191e-06
1.47191e-06
1.47191e-06
1.47191e-06
1.47191e-06
1.47516e-06
1.47689e-06
1.47677e-06
1.47474e-06
1.47191e-06
1.47191e-06
1.47191e-06
1.47191e-06
1.47466e-06
1.47533e-06
1.47707e-06
1.47702e-06
1.47538e-06
1.47521e-06
1.47512e-06
1.47508e-06
1.47516e-06
1.47533e-06
1.47695e-06
1.47702e-06
1.47674e-06
1.47552e-06
1.47689e-06
1.47707e-06
1.46045e-06
1.46031e-06
1.46022e-06
1.45854e-06
1.45844e-06
1.45841e-06
1.4585e-06
1.46007e-06
1.46032e-06
1.46022e-06
1.45808e-06
1.45521e-06
1.45521e-06
1.45521e-06
1.45521e-06
1.45804e-06
1.45868e-06
1.45854e-06
1.45521e-06
1.45521e-06
1.45521e-06
1.45521e-06
1.45521e-06
1.45521e-06
1.45851e-06
1.46032e-06
1.46045e-06
1.45845e-06
1.45521e-06
1.45521e-06
1.45521e-06
1.45521e-06
1.45521e-06
1.45521e-06
1.45842e-06
1.46004e-06
1.4603e-06
1.4584e-06
1.45521e-06
1.45521e-06
1.45521e-06
1.45521e-06
1.45521e-06
1.45521e-06
1.45838e-06
1.45882e-06
1.4585e-06
1.45521e-06
1.45521e-06
1.45521e-06
1.45521e-06
1.45521e-06
1.45521e-06
1.45846e-06
1.46019e-06
1.46007e-06
1.45804e-06
1.45521e-06
1.45521e-06
1.45521e-06
1.45521e-06
1.45796e-06
1.45863e-06
1.46037e-06
1.46032e-06
1.45868e-06
1.45851e-06
1.45842e-06
1.45838e-06
1.45846e-06
1.45863e-06
1.46024e-06
1.46032e-06
1.46004e-06
1.45882e-06
1.46019e-06
1.46037e-06
1.44375e-06
1.4436e-06
1.44352e-06
1.44184e-06
1.44174e-06
1.4417e-06
1.4418e-06
1.44337e-06
1.44362e-06
1.44352e-06
1.44138e-06
1.43851e-06
1.43851e-06
1.43851e-06
1.43851e-06
1.44134e-06
1.44198e-06
1.44184e-06
1.43851e-06
1.43851e-06
1.43851e-06
1.43851e-06
1.43851e-06
1.43851e-06
1.44181e-06
1.44362e-06
1.44374e-06
1.44174e-06
1.43851e-06
1.43851e-06
1.43851e-06
1.43851e-06
1.43851e-06
1.43851e-06
1.44172e-06
1.44334e-06
1.4436e-06
1.4417e-06
1.43851e-06
1.43851e-06
1.43851e-06
1.43851e-06
1.43851e-06
1.43851e-06
1.44168e-06
1.44212e-06
1.44179e-06
1.43851e-06
1.43851e-06
1.43851e-06
1.43851e-06
1.43851e-06
1.43851e-06
1.44176e-06
1.44349e-06
1.44337e-06
1.44134e-06
1.43851e-06
1.43851e-06
1.43851e-06
1.43851e-06
1.44126e-06
1.44193e-06
1.44366e-06
1.44362e-06
1.44198e-06
1.44181e-06
1.44172e-06
1.44168e-06
1.44176e-06
1.44193e-06
1.44354e-06
1.44362e-06
1.44334e-06
1.44212e-06
1.44349e-06
1.44366e-06
1.42705e-06
1.4269e-06
1.42682e-06
1.42514e-06
1.42504e-06
1.425e-06
1.42509e-06
1.42667e-06
1.42692e-06
1.42682e-06
1.42468e-06
1.42181e-06
1.42181e-06
1.42181e-06
1.42181e-06
1.42464e-06
1.42528e-06
1.42514e-06
1.42181e-06
1.42181e-06
1.42181e-06
1.42181e-06
1.42181e-06
1.42181e-06
1.42511e-06
1.42692e-06
1.42705e-06
1.42504e-06
1.42181e-06
1.42181e-06
1.42181e-06
1.42181e-06
1.42181e-06
1.42181e-06
1.42502e-06
1.42664e-06
1.4269e-06
1.425e-06
1.42181e-06
1.42181e-06
1.42181e-06
1.42181e-06
1.42181e-06
1.42181e-06
1.42498e-06
1.42542e-06
1.42509e-06
1.42181e-06
1.42181e-06
1.42181e-06
1.42181e-06
1.42181e-06
1.42181e-06
1.42506e-06
1.42679e-06
1.42667e-06
1.42464e-06
1.42181e-06
1.42181e-06
1.42181e-06
1.42181e-06
1.42456e-06
1.42523e-06
1.42696e-06
1.42692e-06
1.42528e-06
1.42511e-06
1.42502e-06
1.42498e-06
1.42506e-06
1.42523e-06
1.42684e-06
1.42692e-06
1.42664e-06
1.42541e-06
1.42679e-06
1.42696e-06
1.41035e-06
1.4102e-06
1.41012e-06
1.40844e-06
1.40834e-06
1.4083e-06
1.40839e-06
1.40997e-06
1.41022e-06
1.41012e-06
1.40798e-06
1.4051e-06
1.4051e-06
1.4051e-06
1.4051e-06
1.40793e-06
1.40858e-06
1.40844e-06
1.4051e-06
1.4051e-06
1.4051e-06
1.4051e-06
1.4051e-06
1.4051e-06
1.40841e-06
1.41021e-06
1.41035e-06
1.40834e-06
1.4051e-06
1.4051e-06
1.4051e-06
1.4051e-06
1.4051e-06
1.4051e-06
1.40832e-06
1.40994e-06
1.4102e-06
1.4083e-06
1.4051e-06
1.4051e-06
1.4051e-06
1.4051e-06
1.4051e-06
1.4051e-06
1.40828e-06
1.40871e-06
1.40839e-06
1.4051e-06
1.4051e-06
1.4051e-06
1.4051e-06
1.4051e-06
1.4051e-06
1.40836e-06
1.41009e-06
1.40997e-06
1.40793e-06
1.4051e-06
1.4051e-06
1.4051e-06
1.4051e-06
1.40785e-06
1.40853e-06
1.41026e-06
1.41021e-06
1.40858e-06
1.40841e-06
1.40832e-06
1.40828e-06
1.40836e-06
1.40853e-06
1.41014e-06
1.41021e-06
1.40994e-06
1.40871e-06
1.41009e-06
1.41026e-06
1.39364e-06
1.3935e-06
1.39342e-06
1.39174e-06
1.39164e-06
1.3916e-06
1.39169e-06
1.39327e-06
1.39351e-06
1.39342e-06
1.39128e-06
1.3884e-06
1.3884e-06
1.3884e-06
1.3884e-06
1.39123e-06
1.39188e-06
1.39174e-06
1.3884e-06
1.3884e-06
1.3884e-06
1.3884e-06
1.3884e-06
1.3884e-06
1.39171e-06
1.39351e-06
1.39364e-06
1.39164e-06
1.3884e-06
1.3884e-06
1.3884e-06
1.3884e-06
1.3884e-06
1.3884e-06
1.39162e-06
1.39324e-06
1.3935e-06
1.3916e-06
1.3884e-06
1.3884e-06
1.3884e-06
1.3884e-06
1.3884e-06
1.3884e-06
1.39158e-06
1.39201e-06
1.39169e-06
1.3884e-06
1.3884e-06
1.3884e-06
1.3884e-06
1.3884e-06
1.3884e-06
1.39166e-06
1.39339e-06
1.39327e-06
1.39123e-06
1.3884e-06
1.3884e-06
1.3884e-06
1.3884e-06
1.39115e-06
1.39183e-06
1.39356e-06
1.39351e-06
1.39188e-06
1.39171e-06
1.39162e-06
1.39158e-06
1.39166e-06
1.39183e-06
1.39344e-06
1.39351e-06
1.39324e-06
1.39201e-06
1.39339e-06
1.39356e-06
1.37694e-06
1.3768e-06
1.37671e-06
1.37504e-06
1.37494e-06
1.3749e-06
1.37499e-06
1.37656e-06
1.37681e-06
1.37672e-06
1.37458e-06
1.3717e-06
1.3717e-06
1.3717e-06
1.3717e-06
1.37453e-06
1.37517e-06
1.37504e-06
1.3717e-06
1.3717e-06
1.3717e-06
1.3717e-06
1.3717e-06
1.3717e-06
1.37501e-06
1.37681e-06
1.37694e-06
1.37494e-06
1.3717e-06
1.3717e-06
1.3717e-06
1.3717e-06
1.3717e-06
1.3717e-06
1.37491e-06
1.37654e-06
1.37681e-06
1.3749e-06
1.3717e-06
1.3717e-06
1.3717e-06
1.3717e-06
1.3717e-06
1.3717e-06
1.37488e-06
1.37531e-06
1.37499e-06
1.3717e-06
1.3717e-06
1.3717e-06
1.3717e-06
1.3717e-06
1.3717e-06
1.37496e-06
1.37669e-06
1.37657e-06
1.37453e-06
1.3717e-06
1.3717e-06
1.3717e-06
1.3717e-06
1.37445e-06
1.37513e-06
1.37686e-06
1.37681e-06
1.37517e-06
1.37501e-06
1.37491e-06
1.37487e-06
1.37496e-06
1.37512e-06
1.37674e-06
1.37681e-06
1.37654e-06
1.37531e-06
1.37669e-06
1.37686e-06
1.36024e-06
1.3601e-06
1.36001e-06
1.35834e-06
1.35824e-06
1.3582e-06
1.35829e-06
1.35986e-06
1.36011e-06
1.36002e-06
1.35787e-06
1.355e-06
1.355e-06
1.355e-06
1.355e-06
1.35783e-06
1.35847e-06
1.35834e-06
1.355e-06
1.355e-06
1.355e-06
1.355e-06
1.355e-06
1.355e-06
1.3583e-06
1.36011e-06
1.36024e-06
1.35823e-06
1.355e-06
1.355e-06
1.355e-06
1.355e-06
1.355e-06
1.355e-06
1.35821e-06
1.35984e-06
1.36011e-06
1.3582e-06
1.355e-06
1.355e-06
1.355e-06
1.355e-06
1.355e-06
1.355e-06
1.35817e-06
1.35861e-06
1.35829e-06
1.355e-06
1.355e-06
1.355e-06
1.355e-06
1.355e-06
1.355e-06
1.35826e-06
1.35998e-06
1.35986e-06
1.35783e-06
1.355e-06
1.355e-06
1.355e-06
1.355e-06
1.35775e-06
1.35842e-06
1.36016e-06
1.36011e-06
1.35847e-06
1.3583e-06
1.35821e-06
1.35817e-06
1.35826e-06
1.35842e-06
1.36004e-06
1.36011e-06
1.35984e-06
1.35861e-06
1.35998e-06
1.36016e-06
1.34354e-06
1.3434e-06
1.34331e-06
1.34163e-06
1.34153e-06
1.3415e-06
1.34159e-06
1.34316e-06
1.34341e-06
1.34331e-06
1.34117e-06
1.3383e-06
1.3383e-06
1.3383e-06
1.3383e-06
1.34113e-06
1.34177e-06
1.34163e-06
1.3383e-06
1.3383e-06
1.3383e-06
1.3383e-06
1.3383e-06
1.3383e-06
1.3416e-06
1.34341e-06
1.34354e-06
1.34153e-06
1.3383e-06
1.3383e-06
1.3383e-06
1.3383e-06
1.3383e-06
1.3383e-06
1.34151e-06
1.34313e-06
1.3434e-06
1.3415e-06
1.3383e-06
1.3383e-06
1.3383e-06
1.3383e-06
1.3383e-06
1.3383e-06
1.34147e-06
1.34191e-06
1.34159e-06
1.3383e-06
1.3383e-06
1.3383e-06
1.3383e-06
1.3383e-06
1.3383e-06
1.34155e-06
1.34328e-06
1.34316e-06
1.34113e-06
1.3383e-06
1.3383e-06
1.3383e-06
1.3383e-06
1.34105e-06
1.34172e-06
1.34346e-06
1.34341e-06
1.34177e-06
1.3416e-06
1.34151e-06
1.34147e-06
1.34155e-06
1.34172e-06
1.34333e-06
1.34341e-06
1.34313e-06
1.34191e-06
1.34328e-06
1.34346e-06
1.32684e-06
1.3267e-06
1.32661e-06
1.32493e-06
1.32483e-06
1.32479e-06
1.32489e-06
1.32646e-06
1.32671e-06
1.32661e-06
1.32447e-06
1.3216e-06
1.3216e-06
1.3216e-06
1.3216e-06
1.32443e-06
1.32507e-06
1.32493e-06
1.3216e-06
1.3216e-06
1.3216e-06
1.3216e-06
1.3216e-06
1.3216e-06
1.3249e-06
1.32671e-06
1.32684e-06
1.32483e-06
1.3216e-06
1.3216e-06
1.3216e-06
1.3216e-06
1.3216e-06
1.3216e-06
1.32481e-06
1.32643e-06
1.3267e-06
1.32479e-06
1.3216e-06
1.3216e-06
1.3216e-06
1.3216e-06
1.3216e-06
1.3216e-06
1.32477e-06
1.32521e-06
1.32489e-06
1.3216e-06
1.3216e-06
1.3216e-06
1.3216e-06
1.3216e-06
1.3216e-06
1.32485e-06
1.32658e-06
1.32646e-06
1.32443e-06
1.3216e-06
1.3216e-06
1.3216e-06
1.3216e-06
1.32435e-06
1.32502e-06
1.32676e-06
1.32671e-06
1.32507e-06
1.3249e-06
1.32481e-06
1.32477e-06
1.32485e-06
1.32502e-06
1.32663e-06
1.32671e-06
1.32643e-06
1.32521e-06
1.32658e-06
1.32676e-06
1.31014e-06
1.30999e-06
1.30991e-06
1.30823e-06
1.30813e-06
1.30809e-06
1.30818e-06
1.30976e-06
1.31001e-06
1.30991e-06
1.30777e-06
1.3049e-06
1.3049e-06
1.3049e-06
1.3049e-06
1.30773e-06
1.30837e-06
1.30823e-06
1.3049e-06
1.3049e-06
1.3049e-06
1.3049e-06
1.3049e-06
1.3049e-06
1.3082e-06
1.31001e-06
1.31014e-06
1.30813e-06
1.3049e-06
1.3049e-06
1.3049e-06
1.3049e-06
1.3049e-06
1.3049e-06
1.30811e-06
1.30973e-06
1.30999e-06
1.30809e-06
1.3049e-06
1.3049e-06
1.3049e-06
1.3049e-06
1.3049e-06
1.3049e-06
1.30807e-06
1.30851e-06
1.30819e-06
1.3049e-06
1.3049e-06
1.3049e-06
1.3049e-06
1.3049e-06
1.3049e-06
1.30815e-06
1.30988e-06
1.30976e-06
1.30773e-06
1.3049e-06
1.3049e-06
1.3049e-06
1.3049e-06
1.30765e-06
1.30832e-06
1.31005e-06
1.31001e-06
1.30837e-06
1.3082e-06
1.30811e-06
1.30807e-06
1.30815e-06
1.30832e-06
1.30993e-06
1.31001e-06
1.30973e-06
1.3085e-06
1.30988e-06
1.31005e-06
1.29344e-06
1.29329e-06
1.29321e-06
1.29153e-06
1.29143e-06
1.29139e-06
1.29148e-06
1.29306e-06
1.29331e-06
1.29321e-06
1.29107e-06
1.2882e-06
1.2882e-06
1.2882e-06
1.2882e-06
1.29103e-06
1.29167e-06
1.29153e-06
1.2882e-06
1.2882e-06
1.2882e-06
1.2882e-06
1.2882e-06
1.2882e-06
1.2915e-06
1.2933e-06
1.29344e-06
1.29143e-06
1.2882e-06
1.2882e-06
1.2882e-06
1.2882e-06
1.2882e-06
1.2882e-06
1.29141e-06
1.29303e-06
1.29329e-06
1.29139e-06
1.2882e-06
1.2882e-06
1.2882e-06
1.2882e-06
1.2882e-06
1.2882e-06
1.29137e-06
1.29181e-06
1.29148e-06
1.2882e-06
1.2882e-06
1.2882e-06
1.2882e-06
1.2882e-06
1.2882e-06
1.29145e-06
1.29318e-06
1.29306e-06
1.29103e-06
1.2882e-06
1.2882e-06
1.2882e-06
1.2882e-06
1.29095e-06
1.29162e-06
1.29335e-06
1.29331e-06
1.29167e-06
1.2915e-06
1.29141e-06
1.29137e-06
1.29145e-06
1.29162e-06
1.29323e-06
1.2933e-06
1.29303e-06
1.2918e-06
1.29318e-06
1.29335e-06
1.27673e-06
1.27659e-06
1.27651e-06
1.27483e-06
1.27473e-06
1.27469e-06
1.27478e-06
1.27636e-06
1.2766e-06
1.27651e-06
1.27437e-06
1.27149e-06
1.27149e-06
1.27149e-06
1.27149e-06
1.27432e-06
1.27497e-06
1.27483e-06
1.27149e-06
1.27149e-06
1.27149e-06
1.27149e-06
1.27149e-06
1.27149e-06
1.2748e-06
1.2766e-06
1.27673e-06
1.27473e-06
1.27149e-06
1.27149e-06
1.27149e-06
1.27149e-06
1.27149e-06
1.27149e-06
1.27471e-06
1.27633e-06
1.27659e-06
1.27469e-06
1.27149e-06
1.27149e-06
1.27149e-06
1.27149e-06
1.27149e-06
1.27149e-06
1.27467e-06
1.2751e-06
1.27478e-06
1.27149e-06
1.27149e-06
1.27149e-06
1.27149e-06
1.27149e-06
1.27149e-06
1.27475e-06
1.27648e-06
1.27636e-06
1.27432e-06
1.27149e-06
1.27149e-06
1.27149e-06
1.27149e-06
1.27424e-06
1.27492e-06
1.27665e-06
1.2766e-06
1.27497e-06
1.2748e-06
1.27471e-06
1.27467e-06
1.27475e-06
1.27492e-06
1.27653e-06
1.2766e-06
1.27633e-06
1.2751e-06
1.27648e-06
1.27665e-06
1.26003e-06
1.25989e-06
1.2598e-06
1.25813e-06
1.25803e-06
1.25799e-06
1.25808e-06
1.25966e-06
1.2599e-06
1.25981e-06
1.25767e-06
1.25479e-06
1.25479e-06
1.25479e-06
1.25479e-06
1.25762e-06
1.25827e-06
1.25813e-06
1.25479e-06
1.25479e-06
1.25479e-06
1.25479e-06
1.25479e-06
1.25479e-06
1.2581e-06
1.2599e-06
1.26003e-06
1.25803e-06
1.25479e-06
1.25479e-06
1.25479e-06
1.25479e-06
1.25479e-06
1.25479e-06
1.25801e-06
1.25963e-06
1.25989e-06
1.25799e-06
1.25479e-06
1.25479e-06
1.25479e-06
1.25479e-06
1.25479e-06
1.25479e-06
1.25797e-06
1.2584e-06
1.25808e-06
1.25479e-06
1.25479e-06
1.25479e-06
1.25479e-06
1.25479e-06
1.25479e-06
1.25805e-06
1.25978e-06
1.25966e-06
1.25762e-06
1.25479e-06
1.25479e-06
1.25479e-06
1.25479e-06
1.25754e-06
1.25822e-06
1.25995e-06
1.2599e-06
1.25827e-06
1.2581e-06
1.25801e-06
1.25797e-06
1.25805e-06
1.25822e-06
1.25983e-06
1.2599e-06
1.25963e-06
1.2584e-06
1.25978e-06
1.25995e-06
1.24333e-06
1.24319e-06
1.2431e-06
1.24143e-06
1.24133e-06
1.24129e-06
1.24138e-06
1.24295e-06
1.2432e-06
1.24311e-06
1.24096e-06
1.23809e-06
1.23809e-06
1.23809e-06
1.23809e-06
1.24092e-06
1.24156e-06
1.24143e-06
1.23809e-06
1.23809e-06
1.23809e-06
1.23809e-06
1.23809e-06
1.23809e-06
1.2414e-06
1.2432e-06
1.24333e-06
1.24133e-06
1.23809e-06
1.23809e-06
1.23809e-06
1.23809e-06
1.23809e-06
1.23809e-06
1.2413e-06
1.24293e-06
1.24319e-06
1.24129e-06
1.23809e-06
1.23809e-06
1.23809e-06
1.23809e-06
1.23809e-06
1.23809e-06
1.24126e-06
1.2417e-06
1.24138e-06
1.23809e-06
1.23809e-06
1.23809e-06
1.23809e-06
1.23809e-06
1.23809e-06
1.24135e-06
1.24307e-06
1.24295e-06
1.24092e-06
1.23809e-06
1.23809e-06
1.23809e-06
1.23809e-06
1.24084e-06
1.24152e-06
1.24325e-06
1.2432e-06
1.24156e-06
1.2414e-06
1.2413e-06
1.24126e-06
1.24135e-06
1.24151e-06
1.24313e-06
1.2432e-06
1.24293e-06
1.2417e-06
1.24307e-06
1.24325e-06
1.22663e-06
1.22649e-06
1.2264e-06
1.22473e-06
1.22463e-06
1.22459e-06
1.22468e-06
1.22625e-06
1.2265e-06
1.22641e-06
1.22426e-06
1.22139e-06
1.22139e-06
1.22139e-06
1.22139e-06
1.22422e-06
1.22486e-06
1.22473e-06
1.22139e-06
1.22139e-06
1.22139e-06
1.22139e-06
1.22139e-06
1.22139e-06
1.22469e-06
1.2265e-06
1.22663e-06
1.22462e-06
1.22139e-06
1.22139e-06
1.22139e-06
1.22139e-06
1.22139e-06
1.22139e-06
1.2246e-06
1.22622e-06
1.22649e-06
1.22459e-06
1.22139e-06
1.22139e-06
1.22139e-06
1.22139e-06
1.22139e-06
1.22139e-06
1.22456e-06
1.225e-06
1.22468e-06
1.22139e-06
1.22139e-06
1.22139e-06
1.22139e-06
1.22139e-06
1.22139e-06
1.22465e-06
1.22637e-06
1.22625e-06
1.22422e-06
1.22139e-06
1.22139e-06
1.22139e-06
1.22139e-06
1.22414e-06
1.22481e-06
1.22655e-06
1.2265e-06
1.22486e-06
1.22469e-06
1.2246e-06
1.22456e-06
1.22465e-06
1.22481e-06
1.22642e-06
1.2265e-06
1.22623e-06
1.225e-06
1.22637e-06
1.22655e-06
1.20993e-06
1.20979e-06
1.2097e-06
1.20802e-06
1.20792e-06
1.20789e-06
1.20798e-06
1.20955e-06
1.2098e-06
1.2097e-06
1.20756e-06
1.20469e-06
1.20469e-06
1.20469e-06
1.20469e-06
1.20752e-06
1.20816e-06
1.20802e-06
1.20469e-06
1.20469e-06
1.20469e-06
1.20469e-06
1.20469e-06
1.20469e-06
1.20799e-06
1.2098e-06
1.20993e-06
1.20792e-06
1.20469e-06
1.20469e-06
1.20469e-06
1.20469e-06
1.20469e-06
1.20469e-06
1.2079e-06
1.20952e-06
1.20979e-06
1.20789e-06
1.20469e-06
1.20469e-06
1.20469e-06
1.20469e-06
1.20469e-06
1.20469e-06
1.20786e-06
1.2083e-06
1.20798e-06
1.20469e-06
1.20469e-06
1.20469e-06
1.20469e-06
1.20469e-06
1.20469e-06
1.20794e-06
1.20967e-06
1.20955e-06
1.20752e-06
1.20469e-06
1.20469e-06
1.20469e-06
1.20469e-06
1.20744e-06
1.20811e-06
1.20985e-06
1.2098e-06
1.20816e-06
1.20799e-06
1.2079e-06
1.20786e-06
1.20794e-06
1.20811e-06
1.20972e-06
1.2098e-06
1.20952e-06
1.2083e-06
1.20967e-06
1.20985e-06
1.19323e-06
1.19309e-06
1.193e-06
1.19132e-06
1.19122e-06
1.19118e-06
1.19128e-06
1.19285e-06
1.1931e-06
1.193e-06
1.19086e-06
1.18799e-06
1.18799e-06
1.18799e-06
1.18799e-06
1.19082e-06
1.19146e-06
1.19132e-06
1.18799e-06
1.18799e-06
1.18799e-06
1.18799e-06
1.18799e-06
1.18799e-06
1.19129e-06
1.1931e-06
1.19323e-06
1.19122e-06
1.18799e-06
1.18799e-06
1.18799e-06
1.18799e-06
1.18799e-06
1.18799e-06
1.1912e-06
1.19282e-06
1.19308e-06
1.19118e-06
1.18799e-06
1.18799e-06
1.18799e-06
1.18799e-06
1.18799e-06
1.18799e-06
1.19116e-06
1.1916e-06
1.19128e-06
1.18799e-06
1.18799e-06
1.18799e-06
1.18799e-06
1.18799e-06
1.18799e-06
1.19124e-06
1.19297e-06
1.19285e-06
1.19082e-06
1.18799e-06
1.18799e-06
1.18799e-06
1.18799e-06
1.19074e-06
1.19141e-06
1.19314e-06
1.1931e-06
1.19146e-06
1.19129e-06
1.1912e-06
1.19116e-06
1.19124e-06
1.19141e-06
1.19302e-06
1.1931e-06
1.19282e-06
1.1916e-06
1.19297e-06
1.19315e-06
1.17653e-06
1.17638e-06
1.1763e-06
1.17462e-06
1.17452e-06
1.17448e-06
1.17458e-06
1.17615e-06
1.1764e-06
1.1763e-06
1.17416e-06
1.17129e-06
1.17129e-06
1.17129e-06
1.17129e-06
1.17412e-06
1.17476e-06
1.17462e-06
1.17129e-06
1.17129e-06
1.17129e-06
1.17129e-06
1.17129e-06
1.17129e-06
1.17459e-06
1.1764e-06
1.17653e-06
1.17452e-06
1.17129e-06
1.17129e-06
1.17129e-06
1.17129e-06
1.17129e-06
1.17129e-06
1.1745e-06
1.17612e-06
1.17638e-06
1.17448e-06
1.17129e-06
1.17129e-06
1.17129e-06
1.17129e-06
1.17129e-06
1.17129e-06
1.17446e-06
1.1749e-06
1.17458e-06
1.17129e-06
1.17129e-06
1.17129e-06
1.17129e-06
1.17129e-06
1.17129e-06
1.17454e-06
1.17627e-06
1.17615e-06
1.17412e-06
1.17129e-06
1.17129e-06
1.17129e-06
1.17129e-06
1.17404e-06
1.17471e-06
1.17644e-06
1.1764e-06
1.17476e-06
1.17459e-06
1.1745e-06
1.17446e-06
1.17454e-06
1.17471e-06
1.17632e-06
1.1764e-06
1.17612e-06
1.17489e-06
1.17627e-06
1.17644e-06
1.15983e-06
1.15968e-06
1.1596e-06
1.15792e-06
1.15782e-06
1.15778e-06
1.15787e-06
1.15945e-06
1.1597e-06
1.1596e-06
1.15746e-06
1.15459e-06
1.15459e-06
1.15459e-06
1.15459e-06
1.15742e-06
1.15806e-06
1.15792e-06
1.15459e-06
1.15459e-06
1.15459e-06
1.15459e-06
1.15459e-06
1.15459e-06
1.15789e-06
1.15969e-06
1.15983e-06
1.15782e-06
1.15459e-06
1.15459e-06
1.15459e-06
1.15459e-06
1.15459e-06
1.15459e-06
1.1578e-06
1.15942e-06
1.15968e-06
1.15778e-06
1.15459e-06
1.15459e-06
1.15459e-06
1.15459e-06
1.15459e-06
1.15459e-06
1.15776e-06
1.15819e-06
1.15787e-06
1.15459e-06
1.15459e-06
1.15459e-06
1.15459e-06
1.15459e-06
1.15459e-06
1.15784e-06
1.15957e-06
1.15945e-06
1.15742e-06
1.15459e-06
1.15459e-06
1.15459e-06
1.15459e-06
1.15734e-06
1.15801e-06
1.15974e-06
1.1597e-06
1.15806e-06
1.15789e-06
1.1578e-06
1.15776e-06
1.15784e-06
1.15801e-06
1.15962e-06
1.1597e-06
1.15942e-06
1.15819e-06
1.15957e-06
1.15974e-06
1.14312e-06
1.14298e-06
1.1429e-06
1.14122e-06
1.14112e-06
1.14108e-06
1.14117e-06
1.14275e-06
1.14299e-06
1.1429e-06
1.14076e-06
1.13788e-06
1.13788e-06
1.13788e-06
1.13788e-06
1.14071e-06
1.14136e-06
1.14122e-06
1.13788e-06
1.13788e-06
1.13788e-06
1.13788e-06
1.13788e-06
1.13788e-06
1.14119e-06
1.14299e-06
1.14312e-06
1.14112e-06
1.13788e-06
1.13788e-06
1.13788e-06
1.13788e-06
1.13788e-06
1.13788e-06
1.1411e-06
1.14272e-06
1.14298e-06
1.14108e-06
1.13788e-06
1.13788e-06
1.13788e-06
1.13788e-06
1.13788e-06
1.13788e-06
1.14106e-06
1.14149e-06
1.14117e-06
1.13788e-06
1.13788e-06
1.13788e-06
1.13788e-06
1.13788e-06
1.13788e-06
1.14114e-06
1.14287e-06
1.14275e-06
1.14071e-06
1.13788e-06
1.13788e-06
1.13788e-06
1.13788e-06
1.14063e-06
1.14131e-06
1.14304e-06
1.14299e-06
1.14136e-06
1.14119e-06
1.1411e-06
1.14106e-06
1.14114e-06
1.14131e-06
1.14292e-06
1.14299e-06
1.14272e-06
1.14149e-06
1.14287e-06
1.14304e-06
1.12642e-06
1.12628e-06
1.12619e-06
1.12452e-06
1.12442e-06
1.12438e-06
1.12447e-06
1.12605e-06
1.12629e-06
1.1262e-06
1.12406e-06
1.12118e-06
1.12118e-06
1.12118e-06
1.12118e-06
1.12401e-06
1.12466e-06
1.12452e-06
1.12118e-06
1.12118e-06
1.12118e-06
1.12118e-06
1.12118e-06
1.12118e-06
1.12449e-06
1.12629e-06
1.12642e-06
1.12442e-06
1.12118e-06
1.12118e-06
1.12118e-06
1.12118e-06
1.12118e-06
1.12118e-06
1.12439e-06
1.12602e-06
1.12628e-06
1.12438e-06
1.12118e-06
1.12118e-06
1.12118e-06
1.12118e-06
1.12118e-06
1.12118e-06
1.12436e-06
1.12479e-06
1.12447e-06
1.12118e-06
1.12118e-06
1.12118e-06
1.12118e-06
1.12118e-06
1.12118e-06
1.12444e-06
1.12617e-06
1.12605e-06
1.12401e-06
1.12118e-06
1.12118e-06
1.12118e-06
1.12118e-06
1.12393e-06
1.12461e-06
1.12634e-06
1.12629e-06
1.12466e-06
1.12449e-06
1.1244e-06
1.12436e-06
1.12444e-06
1.12461e-06
1.12622e-06
1.12629e-06
1.12602e-06
1.12479e-06
1.12617e-06
1.12634e-06
1.10972e-06
1.10958e-06
1.10949e-06
1.10782e-06
1.10772e-06
1.10768e-06
1.10777e-06
1.10934e-06
1.10959e-06
1.1095e-06
1.10735e-06
1.10448e-06
1.10448e-06
1.10448e-06
1.10448e-06
1.10731e-06
1.10795e-06
1.10782e-06
1.10448e-06
1.10448e-06
1.10448e-06
1.10448e-06
1.10448e-06
1.10448e-06
1.10779e-06
1.10959e-06
1.10972e-06
1.10772e-06
1.10448e-06
1.10448e-06
1.10448e-06
1.10448e-06
1.10448e-06
1.10448e-06
1.10769e-06
1.10932e-06
1.10958e-06
1.10768e-06
1.10448e-06
1.10448e-06
1.10448e-06
1.10448e-06
1.10448e-06
1.10448e-06
1.10765e-06
1.10809e-06
1.10777e-06
1.10448e-06
1.10448e-06
1.10448e-06
1.10448e-06
1.10448e-06
1.10448e-06
1.10774e-06
1.10946e-06
1.10934e-06
1.10731e-06
1.10448e-06
1.10448e-06
1.10448e-06
1.10448e-06
1.10723e-06
1.10791e-06
1.10964e-06
1.10959e-06
1.10795e-06
1.10779e-06
1.10769e-06
1.10765e-06
1.10774e-06
1.1079e-06
1.10952e-06
1.10959e-06
1.10932e-06
1.10809e-06
1.10946e-06
1.10964e-06
1.09302e-06
1.09288e-06
1.09279e-06
1.09112e-06
1.09102e-06
1.09098e-06
1.09107e-06
1.09264e-06
1.09289e-06
1.0928e-06
1.09065e-06
1.08778e-06
1.08778e-06
1.08778e-06
1.08778e-06
1.09061e-06
1.09125e-06
1.09112e-06
1.08778e-06
1.08778e-06
1.08778e-06
1.08778e-06
1.08778e-06
1.08778e-06
1.09108e-06
1.09289e-06
1.09302e-06
1.09102e-06
1.08778e-06
1.08778e-06
1.08778e-06
1.08778e-06
1.08778e-06
1.08778e-06
1.09099e-06
1.09261e-06
1.09288e-06
1.09098e-06
1.08778e-06
1.08778e-06
1.08778e-06
1.08778e-06
1.08778e-06
1.08778e-06
1.09095e-06
1.09139e-06
1.09107e-06
1.08778e-06
1.08778e-06
1.08778e-06
1.08778e-06
1.08778e-06
1.08778e-06
1.09103e-06
1.09276e-06
1.09264e-06
1.09061e-06
1.08778e-06
1.08778e-06
1.08778e-06
1.08778e-06
1.09053e-06
1.0912e-06
1.09294e-06
1.09289e-06
1.09125e-06
1.09108e-06
1.09099e-06
1.09095e-06
1.09104e-06
1.0912e-06
1.09282e-06
1.09289e-06
1.09261e-06
1.09139e-06
1.09276e-06
1.09294e-06
1.07632e-06
1.07618e-06
1.07609e-06
1.07441e-06
1.07431e-06
1.07428e-06
1.07437e-06
1.07594e-06
1.07619e-06
1.07609e-06
1.07395e-06
1.07108e-06
1.07108e-06
1.07108e-06
1.07108e-06
1.07391e-06
1.07455e-06
1.07441e-06
1.07108e-06
1.07108e-06
1.07108e-06
1.07108e-06
1.07108e-06
1.07108e-06
1.07438e-06
1.07619e-06
1.07632e-06
1.07431e-06
1.07108e-06
1.07108e-06
1.07108e-06
1.07108e-06
1.07108e-06
1.07108e-06
1.07429e-06
1.07591e-06
1.07618e-06
1.07428e-06
1.07108e-06
1.07108e-06
1.07108e-06
1.07108e-06
1.07108e-06
1.07108e-06
1.07425e-06
1.07469e-06
1.07437e-06
1.07108e-06
1.07108e-06
1.07108e-06
1.07108e-06
1.07108e-06
1.07108e-06
1.07433e-06
1.07606e-06
1.07594e-06
1.07391e-06
1.07108e-06
1.07108e-06
1.07108e-06
1.07108e-06
1.07383e-06
1.0745e-06
1.07624e-06
1.07619e-06
1.07455e-06
1.07438e-06
1.07429e-06
1.07425e-06
1.07433e-06
1.0745e-06
1.07611e-06
1.07619e-06
1.07591e-06
1.07469e-06
1.07606e-06
1.07624e-06
1.05962e-06
1.05947e-06
1.05939e-06
1.05771e-06
1.05761e-06
1.05757e-06
1.05767e-06