/*--------------------------------*- C++ -*----------------------------------*\
| =========                 |                                                 |
| \\      /  F ield         | OpenFOAM: The Open Source CFD Toolbox           |
|  \\    /   O peration     | Version:  v2012                                 |
|   \\  /    A nd           | Website:  www.openfoam.com                      |
|    \\/     M anipulation  |                                                 |
\*---------------------------------------------------------------------------*/
FoamFile
{
    version     2.0;
    format      ascii;
    class       volScalarField;
    location    "4.5";
    object      p;
}
// * * * * * * * * * * * * * * * * * * * * * * * * * * * * * * * * * * * * * //

dimensions      [0 2 -2 0 0 0 0];


internalField   nonuniform List<scalar> 
244288
(
1.66053e-06
1.66085e-06
1.66082e-06
1.66062e-06
1.66052e-06
1.66065e-06
1.66084e-06
1.66085e-06
1.66083e-06
1.6606e-06
1.66031e-06
1.6602e-06
1.66034e-06
1.66064e-06
1.66083e-06
1.66082e-06
1.6606e-06
1.66017e-06
1.65977e-06
1.65963e-06
1.65981e-06
1.66022e-06
1.66065e-06
1.66083e-06
1.66062e-06
1.66031e-06
1.65977e-06
1.65932e-06
1.65916e-06
1.65936e-06
1.65984e-06
1.66037e-06
1.66063e-06
1.66053e-06
1.66052e-06
1.6602e-06
1.65963e-06
1.65916e-06
1.659e-06
1.6592e-06
1.6597e-06
1.66026e-06
1.66052e-06
1.66065e-06
1.66034e-06
1.65981e-06
1.65936e-06
1.6592e-06
1.6594e-06
1.65987e-06
1.6604e-06
1.66066e-06
1.66084e-06
1.66064e-06
1.66022e-06
1.65984e-06
1.6597e-06
1.65987e-06
1.66028e-06
1.66068e-06
1.66085e-06
1.66083e-06
1.66065e-06
1.66037e-06
1.66026e-06
1.6604e-06
1.66068e-06
1.66083e-06
1.66084e-06
1.66063e-06
1.66052e-06
1.66066e-06
1.66085e-06
1.63195e-06
1.63149e-06
1.63111e-06
1.62968e-06
1.62958e-06
1.62956e-06
1.62961e-06
1.631e-06
1.63114e-06
1.63112e-06
1.6293e-06
1.6269e-06
1.62691e-06
1.62691e-06
1.62691e-06
1.62913e-06
1.62962e-06
1.62968e-06
1.62692e-06
1.62694e-06
1.62697e-06
1.62697e-06
1.62694e-06
1.62691e-06
1.62937e-06
1.63127e-06
1.63196e-06
1.62958e-06
1.62691e-06
1.62698e-06
1.62702e-06
1.62702e-06
1.62697e-06
1.62691e-06
1.62924e-06
1.63108e-06
1.6315e-06
1.62957e-06
1.62692e-06
1.62698e-06
1.62702e-06
1.62702e-06
1.62697e-06
1.6269e-06
1.62921e-06
1.6298e-06
1.62961e-06
1.62693e-06
1.62695e-06
1.62698e-06
1.62698e-06
1.62694e-06
1.62689e-06
1.62928e-06
1.63113e-06
1.631e-06
1.62914e-06
1.62691e-06
1.62691e-06
1.62692e-06
1.62694e-06
1.62884e-06
1.62954e-06
1.63132e-06
1.63114e-06
1.62962e-06
1.62937e-06
1.62925e-06
1.62922e-06
1.62929e-06
1.62955e-06
1.63106e-06
1.63128e-06
1.63109e-06
1.62981e-06
1.63114e-06
1.63133e-06
1.61436e-06
1.6142e-06
1.61414e-06
1.61246e-06
1.61235e-06
1.61233e-06
1.61239e-06
1.61395e-06
1.61421e-06
1.61414e-06
1.61209e-06
1.60916e-06
1.60917e-06
1.60916e-06
1.60916e-06
1.61192e-06
1.61254e-06
1.61246e-06
1.60916e-06
1.60917e-06
1.60918e-06
1.60918e-06
1.60917e-06
1.60916e-06
1.61226e-06
1.61417e-06
1.61435e-06
1.61235e-06
1.60917e-06
1.60918e-06
1.60919e-06
1.60919e-06
1.60918e-06
1.60916e-06
1.61207e-06
1.61389e-06
1.61421e-06
1.61233e-06
1.60917e-06
1.60918e-06
1.60919e-06
1.60919e-06
1.60918e-06
1.60916e-06
1.61203e-06
1.61268e-06
1.61239e-06
1.60916e-06
1.60917e-06
1.60918e-06
1.60918e-06
1.60917e-06
1.60916e-06
1.61214e-06
1.61402e-06
1.61395e-06
1.61192e-06
1.60916e-06
1.60917e-06
1.60917e-06
1.60916e-06
1.61163e-06
1.61243e-06
1.61424e-06
1.61421e-06
1.61254e-06
1.61226e-06
1.61208e-06
1.61204e-06
1.61215e-06
1.61243e-06
1.61395e-06
1.61417e-06
1.61389e-06
1.61269e-06
1.61402e-06
1.61424e-06
1.59723e-06
1.59707e-06
1.59702e-06
1.59531e-06
1.5952e-06
1.59518e-06
1.59525e-06
1.59683e-06
1.59709e-06
1.59702e-06
1.5949e-06
1.59189e-06
1.59189e-06
1.59189e-06
1.59189e-06
1.59476e-06
1.59541e-06
1.59531e-06
1.59189e-06
1.59189e-06
1.59189e-06
1.59189e-06
1.59189e-06
1.59189e-06
1.59517e-06
1.59706e-06
1.59723e-06
1.5952e-06
1.59189e-06
1.59189e-06
1.59189e-06
1.59189e-06
1.59189e-06
1.59189e-06
1.59502e-06
1.59677e-06
1.59707e-06
1.59519e-06
1.59189e-06
1.59189e-06
1.59189e-06
1.59189e-06
1.59189e-06
1.59189e-06
1.59497e-06
1.59555e-06
1.59525e-06
1.59189e-06
1.59189e-06
1.59189e-06
1.59189e-06
1.59189e-06
1.59189e-06
1.59508e-06
1.5969e-06
1.59683e-06
1.59476e-06
1.59189e-06
1.59189e-06
1.59189e-06
1.59189e-06
1.59453e-06
1.59532e-06
1.59712e-06
1.59709e-06
1.59541e-06
1.59517e-06
1.59502e-06
1.59498e-06
1.59508e-06
1.59531e-06
1.59682e-06
1.59706e-06
1.59677e-06
1.59555e-06
1.5969e-06
1.59712e-06
1.58004e-06
1.57988e-06
1.57981e-06
1.5781e-06
1.57799e-06
1.57797e-06
1.57804e-06
1.57963e-06
1.57989e-06
1.57981e-06
1.57767e-06
1.57465e-06
1.57465e-06
1.57465e-06
1.57465e-06
1.57754e-06
1.5782e-06
1.57809e-06
1.57465e-06
1.57465e-06
1.57465e-06
1.57465e-06
1.57465e-06
1.57465e-06
1.57797e-06
1.57986e-06
1.58004e-06
1.57799e-06
1.57465e-06
1.57465e-06
1.57465e-06
1.57465e-06
1.57465e-06
1.57465e-06
1.57784e-06
1.57957e-06
1.57988e-06
1.57797e-06
1.57465e-06
1.57465e-06
1.57465e-06
1.57465e-06
1.57465e-06
1.57465e-06
1.57779e-06
1.57836e-06
1.57804e-06
1.57465e-06
1.57465e-06
1.57465e-06
1.57465e-06
1.57465e-06
1.57465e-06
1.57789e-06
1.5797e-06
1.57963e-06
1.57754e-06
1.57465e-06
1.57465e-06
1.57465e-06
1.57465e-06
1.57734e-06
1.57811e-06
1.57992e-06
1.57989e-06
1.5782e-06
1.57797e-06
1.57784e-06
1.5778e-06
1.57789e-06
1.57811e-06
1.57961e-06
1.57986e-06
1.57957e-06
1.57836e-06
1.5797e-06
1.57993e-06
1.56282e-06
1.56266e-06
1.56259e-06
1.56088e-06
1.56077e-06
1.56075e-06
1.56082e-06
1.56241e-06
1.56267e-06
1.56259e-06
1.56044e-06
1.55742e-06
1.55742e-06
1.55742e-06
1.55742e-06
1.56031e-06
1.56098e-06
1.56087e-06
1.55742e-06
1.55742e-06
1.55742e-06
1.55742e-06
1.55742e-06
1.55742e-06
1.56075e-06
1.56264e-06
1.56282e-06
1.56077e-06
1.55742e-06
1.55742e-06
1.55742e-06
1.55742e-06
1.55742e-06
1.55742e-06
1.56062e-06
1.56235e-06
1.56267e-06
1.56075e-06
1.55742e-06
1.55742e-06
1.55742e-06
1.55742e-06
1.55742e-06
1.55742e-06
1.56058e-06
1.56114e-06
1.56082e-06
1.55742e-06
1.55742e-06
1.55742e-06
1.55742e-06
1.55742e-06
1.55742e-06
1.56068e-06
1.56248e-06
1.56241e-06
1.56032e-06
1.55742e-06
1.55742e-06
1.55742e-06
1.55742e-06
1.56012e-06
1.56089e-06
1.56271e-06
1.56267e-06
1.56098e-06
1.56075e-06
1.56062e-06
1.56058e-06
1.56068e-06
1.56089e-06
1.56239e-06
1.56264e-06
1.56235e-06
1.56114e-06
1.56248e-06
1.56271e-06
1.54559e-06
1.54543e-06
1.54537e-06
1.54365e-06
1.54354e-06
1.54353e-06
1.54359e-06
1.54519e-06
1.54544e-06
1.54537e-06
1.54322e-06
1.54019e-06
1.54019e-06
1.54019e-06
1.54019e-06
1.54309e-06
1.54376e-06
1.54365e-06
1.54019e-06
1.54019e-06
1.54019e-06
1.54019e-06
1.54019e-06
1.54019e-06
1.54353e-06
1.54542e-06
1.5456e-06
1.54354e-06
1.54019e-06
1.54019e-06
1.54019e-06
1.54019e-06
1.54019e-06
1.54019e-06
1.5434e-06
1.54513e-06
1.54544e-06
1.54353e-06
1.54019e-06
1.54019e-06
1.54019e-06
1.54019e-06
1.54019e-06
1.54019e-06
1.54336e-06
1.54391e-06
1.54359e-06
1.54019e-06
1.54019e-06
1.54019e-06
1.54019e-06
1.54019e-06
1.54019e-06
1.54345e-06
1.54526e-06
1.54519e-06
1.54309e-06
1.54019e-06
1.54019e-06
1.54019e-06
1.54019e-06
1.5429e-06
1.54367e-06
1.54548e-06
1.54544e-06
1.54376e-06
1.54353e-06
1.5434e-06
1.54336e-06
1.54345e-06
1.54367e-06
1.54517e-06
1.54542e-06
1.54513e-06
1.54392e-06
1.54526e-06
1.54548e-06
1.52837e-06
1.52821e-06
1.52814e-06
1.52643e-06
1.52632e-06
1.5263e-06
1.52637e-06
1.52796e-06
1.52822e-06
1.52814e-06
1.52599e-06
1.52297e-06
1.52297e-06
1.52297e-06
1.52297e-06
1.52586e-06
1.52653e-06
1.52642e-06
1.52297e-06
1.52297e-06
1.52297e-06
1.52297e-06
1.52297e-06
1.52297e-06
1.5263e-06
1.52819e-06
1.52837e-06
1.52632e-06
1.52297e-06
1.52297e-06
1.52297e-06
1.52297e-06
1.52297e-06
1.52297e-06
1.52618e-06
1.5279e-06
1.52821e-06
1.5263e-06
1.52297e-06
1.52297e-06
1.52297e-06
1.52297e-06
1.52297e-06
1.52297e-06
1.52613e-06
1.52669e-06
1.52637e-06
1.52297e-06
1.52297e-06
1.52297e-06
1.52297e-06
1.52297e-06
1.52297e-06
1.52623e-06
1.52803e-06
1.52796e-06
1.52586e-06
1.52297e-06
1.52297e-06
1.52297e-06
1.52297e-06
1.52567e-06
1.52644e-06
1.52826e-06
1.52822e-06
1.52653e-06
1.5263e-06
1.52618e-06
1.52613e-06
1.52623e-06
1.52644e-06
1.52794e-06
1.52819e-06
1.52791e-06
1.52669e-06
1.52803e-06
1.52826e-06
1.51114e-06
1.51098e-06
1.51091e-06
1.5092e-06
1.50909e-06
1.50908e-06
1.50914e-06
1.51074e-06
1.51099e-06
1.51091e-06
1.50876e-06
1.50574e-06
1.50574e-06
1.50574e-06
1.50574e-06
1.50864e-06
1.50931e-06
1.5092e-06
1.50574e-06
1.50574e-06
1.50574e-06
1.50574e-06
1.50574e-06
1.50574e-06
1.50908e-06
1.51096e-06
1.51114e-06
1.50909e-06
1.50574e-06
1.50574e-06
1.50574e-06
1.50574e-06
1.50574e-06
1.50574e-06
1.50895e-06
1.51068e-06
1.51099e-06
1.50908e-06
1.50574e-06
1.50574e-06
1.50574e-06
1.50574e-06
1.50574e-06
1.50574e-06
1.50891e-06
1.50946e-06
1.50914e-06
1.50574e-06
1.50574e-06
1.50574e-06
1.50574e-06
1.50574e-06
1.50574e-06
1.509e-06
1.51081e-06
1.51074e-06
1.50864e-06
1.50574e-06
1.50574e-06
1.50574e-06
1.50574e-06
1.50845e-06
1.50921e-06
1.51103e-06
1.51099e-06
1.50931e-06
1.50908e-06
1.50895e-06
1.50891e-06
1.509e-06
1.50922e-06
1.51072e-06
1.51096e-06
1.51068e-06
1.50946e-06
1.51081e-06
1.51103e-06
1.49392e-06
1.49376e-06
1.49369e-06
1.49197e-06
1.49187e-06
1.49185e-06
1.49192e-06
1.49351e-06
1.49377e-06
1.49369e-06
1.49154e-06
1.48852e-06
1.48852e-06
1.48852e-06
1.48852e-06
1.49141e-06
1.49208e-06
1.49197e-06
1.48852e-06
1.48852e-06
1.48852e-06
1.48852e-06
1.48852e-06
1.48852e-06
1.49185e-06
1.49374e-06
1.49391e-06
1.49187e-06
1.48852e-06
1.48852e-06
1.48852e-06
1.48852e-06
1.48852e-06
1.48852e-06
1.49172e-06
1.49345e-06
1.49376e-06
1.49185e-06
1.48852e-06
1.48852e-06
1.48852e-06
1.48852e-06
1.48852e-06
1.48852e-06
1.49168e-06
1.49224e-06
1.49191e-06
1.48852e-06
1.48852e-06
1.48852e-06
1.48852e-06
1.48852e-06
1.48852e-06
1.49178e-06
1.49358e-06
1.49351e-06
1.49141e-06
1.48852e-06
1.48852e-06
1.48852e-06
1.48852e-06
1.49122e-06
1.49199e-06
1.4938e-06
1.49377e-06
1.49208e-06
1.49185e-06
1.49172e-06
1.49168e-06
1.49178e-06
1.49199e-06
1.49349e-06
1.49374e-06
1.49345e-06
1.49224e-06
1.49358e-06
1.4938e-06
1.47669e-06
1.47653e-06
1.47646e-06
1.47475e-06
1.47464e-06
1.47462e-06
1.47469e-06
1.47628e-06
1.47654e-06
1.47646e-06
1.47431e-06
1.47129e-06
1.47129e-06
1.47129e-06
1.47129e-06
1.47419e-06
1.47486e-06
1.47475e-06
1.47129e-06
1.47129e-06
1.47129e-06
1.47129e-06
1.47129e-06
1.47129e-06
1.47462e-06
1.47651e-06
1.47669e-06
1.47464e-06
1.47129e-06
1.47129e-06
1.47129e-06
1.47129e-06
1.47129e-06
1.47129e-06
1.4745e-06
1.47623e-06
1.47654e-06
1.47462e-06
1.47129e-06
1.47129e-06
1.47129e-06
1.47129e-06
1.47129e-06
1.47129e-06
1.47446e-06
1.47501e-06
1.47469e-06
1.47129e-06
1.47129e-06
1.47129e-06
1.47129e-06
1.47129e-06
1.47129e-06
1.47455e-06
1.47636e-06
1.47628e-06
1.47419e-06
1.47129e-06
1.47129e-06
1.47129e-06
1.47129e-06
1.47399e-06
1.47476e-06
1.47658e-06
1.47654e-06
1.47486e-06
1.47463e-06
1.4745e-06
1.47446e-06
1.47455e-06
1.47476e-06
1.47627e-06
1.47651e-06
1.47623e-06
1.47501e-06
1.47636e-06
1.47658e-06
1.45947e-06
1.45931e-06
1.45924e-06
1.45752e-06
1.45742e-06
1.4574e-06
1.45746e-06
1.45906e-06
1.45932e-06
1.45924e-06
1.45709e-06
1.45406e-06
1.45406e-06
1.45406e-06
1.45406e-06
1.45696e-06
1.45763e-06
1.45752e-06
1.45406e-06
1.45406e-06
1.45406e-06
1.45406e-06
1.45406e-06
1.45406e-06
1.4574e-06
1.45929e-06
1.45947e-06
1.45742e-06
1.45406e-06
1.45406e-06
1.45406e-06
1.45406e-06
1.45406e-06
1.45406e-06
1.45727e-06
1.459e-06
1.45931e-06
1.4574e-06
1.45406e-06
1.45406e-06
1.45406e-06
1.45406e-06
1.45406e-06
1.45406e-06
1.45723e-06
1.45779e-06
1.45746e-06
1.45406e-06
1.45406e-06
1.45406e-06
1.45406e-06
1.45406e-06
1.45406e-06
1.45733e-06
1.45913e-06
1.45906e-06
1.45696e-06
1.45406e-06
1.45406e-06
1.45406e-06
1.45406e-06
1.45677e-06
1.45754e-06
1.45935e-06
1.45932e-06
1.45763e-06
1.4574e-06
1.45727e-06
1.45723e-06
1.45733e-06
1.45754e-06
1.45904e-06
1.45929e-06
1.459e-06
1.45779e-06
1.45913e-06
1.45935e-06
1.44224e-06
1.44208e-06
1.44201e-06
1.4403e-06
1.44019e-06
1.44017e-06
1.44024e-06
1.44183e-06
1.44209e-06
1.44201e-06
1.43986e-06
1.43684e-06
1.43684e-06
1.43684e-06
1.43684e-06
1.43973e-06
1.4404e-06
1.4403e-06
1.43684e-06
1.43684e-06
1.43684e-06
1.43684e-06
1.43684e-06
1.43684e-06
1.44017e-06
1.44206e-06
1.44224e-06
1.44019e-06
1.43684e-06
1.43684e-06
1.43684e-06
1.43684e-06
1.43684e-06
1.43684e-06
1.44005e-06
1.44178e-06
1.44208e-06
1.44017e-06
1.43684e-06
1.43684e-06
1.43684e-06
1.43684e-06
1.43684e-06
1.43684e-06
1.44001e-06
1.44056e-06
1.44024e-06
1.43684e-06
1.43684e-06
1.43684e-06
1.43684e-06
1.43684e-06
1.43684e-06
1.4401e-06
1.44191e-06
1.44183e-06
1.43974e-06
1.43684e-06
1.43684e-06
1.43684e-06
1.43684e-06
1.43954e-06
1.44031e-06
1.44213e-06
1.44209e-06
1.44041e-06
1.44017e-06
1.44005e-06
1.44001e-06
1.4401e-06
1.44031e-06
1.44181e-06
1.44206e-06
1.44178e-06
1.44056e-06
1.44191e-06
1.44213e-06
1.42502e-06
1.42485e-06
1.42479e-06
1.42307e-06
1.42296e-06
1.42295e-06
1.42301e-06
1.42461e-06
1.42486e-06
1.42479e-06
1.42263e-06
1.41961e-06
1.41961e-06
1.41961e-06
1.41961e-06
1.42251e-06
1.42318e-06
1.42307e-06
1.41961e-06
1.41961e-06
1.41961e-06
1.41961e-06
1.41961e-06
1.41961e-06
1.42295e-06
1.42484e-06
1.42502e-06
1.42296e-06
1.41961e-06
1.41961e-06
1.41961e-06
1.41961e-06
1.41961e-06
1.41961e-06
1.42282e-06
1.42455e-06
1.42486e-06
1.42295e-06
1.41961e-06
1.41961e-06
1.41961e-06
1.41961e-06
1.41961e-06
1.41961e-06
1.42278e-06
1.42334e-06
1.42301e-06
1.41961e-06
1.41961e-06
1.41961e-06
1.41961e-06
1.41961e-06
1.41961e-06
1.42287e-06
1.42468e-06
1.42461e-06
1.42251e-06
1.41961e-06
1.41961e-06
1.41961e-06
1.41961e-06
1.42232e-06
1.42309e-06
1.4249e-06
1.42486e-06
1.42318e-06
1.42295e-06
1.42282e-06
1.42278e-06
1.42288e-06
1.42309e-06
1.42459e-06
1.42484e-06
1.42455e-06
1.42334e-06
1.42468e-06
1.4249e-06
1.40779e-06
1.40763e-06
1.40756e-06
1.40585e-06
1.40574e-06
1.40572e-06
1.40579e-06
1.40738e-06
1.40764e-06
1.40756e-06
1.40541e-06
1.40239e-06
1.40239e-06
1.40239e-06
1.40239e-06
1.40528e-06
1.40595e-06
1.40584e-06
1.40239e-06
1.40239e-06
1.40239e-06
1.40239e-06
1.40239e-06
1.40239e-06
1.40572e-06
1.40761e-06
1.40779e-06
1.40574e-06
1.40239e-06
1.40239e-06
1.40239e-06
1.40239e-06
1.40239e-06
1.40239e-06
1.4056e-06
1.40733e-06
1.40764e-06
1.40572e-06
1.40239e-06
1.40239e-06
1.40239e-06
1.40239e-06
1.40239e-06
1.40239e-06
1.40555e-06
1.40611e-06
1.40579e-06
1.40239e-06
1.40239e-06
1.40239e-06
1.40239e-06
1.40239e-06
1.40239e-06
1.40565e-06
1.40745e-06
1.40738e-06
1.40528e-06
1.40239e-06
1.40239e-06
1.40239e-06
1.40239e-06
1.40509e-06
1.40586e-06
1.40768e-06
1.40764e-06
1.40595e-06
1.40572e-06
1.4056e-06
1.40555e-06
1.40565e-06
1.40586e-06
1.40736e-06
1.40761e-06
1.40733e-06
1.40611e-06
1.40745e-06
1.40768e-06
1.39056e-06
1.3904e-06
1.39033e-06
1.38862e-06
1.38851e-06
1.3885e-06
1.38856e-06
1.39016e-06
1.39041e-06
1.39033e-06
1.38818e-06
1.38516e-06
1.38516e-06
1.38516e-06
1.38516e-06
1.38806e-06
1.38873e-06
1.38862e-06
1.38516e-06
1.38516e-06
1.38516e-06
1.38516e-06
1.38516e-06
1.38516e-06
1.3885e-06
1.39038e-06
1.39056e-06
1.38851e-06
1.38516e-06
1.38516e-06
1.38516e-06
1.38516e-06
1.38516e-06
1.38516e-06
1.38837e-06
1.3901e-06
1.3904e-06
1.3885e-06
1.38516e-06
1.38516e-06
1.38516e-06
1.38516e-06
1.38516e-06
1.38516e-06
1.38833e-06
1.38888e-06
1.38856e-06
1.38516e-06
1.38516e-06
1.38516e-06
1.38516e-06
1.38516e-06
1.38516e-06
1.38842e-06
1.39023e-06
1.39016e-06
1.38806e-06
1.38516e-06
1.38516e-06
1.38516e-06
1.38516e-06
1.38787e-06
1.38863e-06
1.39045e-06
1.39041e-06
1.38873e-06
1.3885e-06
1.38837e-06
1.38833e-06
1.38842e-06
1.38864e-06
1.39014e-06
1.39038e-06
1.3901e-06
1.38888e-06
1.39023e-06
1.39045e-06
1.37334e-06
1.37318e-06
1.37311e-06
1.37139e-06
1.37129e-06
1.37127e-06
1.37133e-06
1.37293e-06
1.37319e-06
1.37311e-06
1.37096e-06
1.36794e-06
1.36794e-06
1.36794e-06
1.36794e-06
1.37083e-06
1.3715e-06
1.37139e-06
1.36794e-06
1.36794e-06
1.36794e-06
1.36794e-06
1.36794e-06
1.36794e-06
1.37127e-06
1.37316e-06
1.37334e-06
1.37129e-06
1.36794e-06
1.36794e-06
1.36794e-06
1.36794e-06
1.36794e-06
1.36794e-06
1.37114e-06
1.37287e-06
1.37318e-06
1.37127e-06
1.36794e-06
1.36794e-06
1.36794e-06
1.36794e-06
1.36794e-06
1.36794e-06
1.3711e-06
1.37166e-06
1.37133e-06
1.36794e-06
1.36794e-06
1.36794e-06
1.36794e-06
1.36794e-06
1.36794e-06
1.3712e-06
1.373e-06
1.37293e-06
1.37083e-06
1.36794e-06
1.36794e-06
1.36794e-06
1.36794e-06
1.37064e-06
1.37141e-06
1.37322e-06
1.37319e-06
1.3715e-06
1.37127e-06
1.37114e-06
1.3711e-06
1.3712e-06
1.37141e-06
1.37291e-06
1.37316e-06
1.37287e-06
1.37166e-06
1.373e-06
1.37322e-06
1.35611e-06
1.35595e-06
1.35588e-06
1.35417e-06
1.35406e-06
1.35404e-06
1.35411e-06
1.3557e-06
1.35596e-06
1.35588e-06
1.35373e-06
1.35071e-06
1.35071e-06
1.35071e-06
1.35071e-06
1.3536e-06
1.35428e-06
1.35417e-06
1.35071e-06
1.35071e-06
1.35071e-06
1.35071e-06
1.35071e-06
1.35071e-06
1.35404e-06
1.35593e-06
1.35611e-06
1.35406e-06
1.35071e-06
1.35071e-06
1.35071e-06
1.35071e-06
1.35071e-06
1.35071e-06
1.35392e-06
1.35565e-06
1.35595e-06
1.35404e-06
1.35071e-06
1.35071e-06
1.35071e-06
1.35071e-06
1.35071e-06
1.35071e-06
1.35388e-06
1.35443e-06
1.35411e-06
1.35071e-06
1.35071e-06
1.35071e-06
1.35071e-06
1.35071e-06
1.35071e-06
1.35397e-06
1.35578e-06
1.3557e-06
1.3536e-06
1.35071e-06
1.35071e-06
1.35071e-06
1.35071e-06
1.35341e-06
1.35418e-06
1.356e-06
1.35596e-06
1.35427e-06
1.35404e-06
1.35392e-06
1.35388e-06
1.35397e-06
1.35418e-06
1.35568e-06
1.35593e-06
1.35565e-06
1.35443e-06
1.35578e-06
1.356e-06
1.33889e-06
1.33872e-06
1.33866e-06
1.33694e-06
1.33683e-06
1.33682e-06
1.33688e-06
1.33848e-06
1.33873e-06
1.33866e-06
1.33651e-06
1.33348e-06
1.33348e-06
1.33348e-06
1.33348e-06
1.33638e-06
1.33705e-06
1.33694e-06
1.33348e-06
1.33348e-06
1.33348e-06
1.33348e-06
1.33348e-06
1.33348e-06
1.33682e-06
1.33871e-06
1.33888e-06
1.33683e-06
1.33348e-06
1.33348e-06
1.33348e-06
1.33348e-06
1.33348e-06
1.33348e-06
1.33669e-06
1.33842e-06
1.33872e-06
1.33682e-06
1.33348e-06
1.33348e-06
1.33348e-06
1.33348e-06
1.33348e-06
1.33348e-06
1.33665e-06
1.33721e-06
1.33688e-06
1.33348e-06
1.33348e-06
1.33348e-06
1.33348e-06
1.33348e-06
1.33348e-06
1.33674e-06
1.33855e-06
1.33848e-06
1.33638e-06
1.33348e-06
1.33348e-06
1.33348e-06
1.33348e-06
1.33619e-06
1.33696e-06
1.33877e-06
1.33873e-06
1.33705e-06
1.33682e-06
1.33669e-06
1.33665e-06
1.33675e-06
1.33696e-06
1.33846e-06
1.33871e-06
1.33842e-06
1.3372e-06
1.33855e-06
1.33877e-06
1.32166e-06
1.3215e-06
1.32143e-06
1.31972e-06
1.31961e-06
1.31959e-06
1.31966e-06
1.32125e-06
1.32151e-06
1.32143e-06
1.31928e-06
1.31626e-06
1.31626e-06
1.31626e-06
1.31626e-06
1.31915e-06
1.31982e-06
1.31971e-06
1.31626e-06
1.31626e-06
1.31626e-06
1.31626e-06
1.31626e-06
1.31626e-06
1.31959e-06
1.32148e-06
1.32166e-06
1.31961e-06
1.31626e-06
1.31626e-06
1.31626e-06
1.31626e-06
1.31626e-06
1.31626e-06
1.31947e-06
1.3212e-06
1.3215e-06
1.31959e-06
1.31626e-06
1.31626e-06
1.31626e-06
1.31626e-06
1.31626e-06
1.31626e-06
1.31942e-06
1.31998e-06
1.31966e-06
1.31626e-06
1.31626e-06
1.31626e-06
1.31626e-06
1.31626e-06
1.31626e-06
1.31952e-06
1.32133e-06
1.32125e-06
1.31915e-06
1.31626e-06
1.31626e-06
1.31626e-06
1.31626e-06
1.31896e-06
1.31973e-06
1.32155e-06
1.32151e-06
1.31982e-06
1.31959e-06
1.31947e-06
1.31943e-06
1.31952e-06
1.31973e-06
1.32123e-06
1.32148e-06
1.32119e-06
1.31998e-06
1.32132e-06
1.32155e-06
1.30443e-06
1.30427e-06
1.30421e-06
1.30249e-06
1.30238e-06
1.30237e-06
1.30243e-06
1.30403e-06
1.30428e-06
1.30421e-06
1.30205e-06
1.29903e-06
1.29903e-06
1.29903e-06
1.29903e-06
1.30193e-06
1.3026e-06
1.30249e-06
1.29903e-06
1.29903e-06
1.29903e-06
1.29903e-06
1.29903e-06
1.29903e-06
1.30237e-06
1.30426e-06
1.30443e-06
1.30238e-06
1.29903e-06
1.29903e-06
1.29903e-06
1.29903e-06
1.29903e-06
1.29903e-06
1.30224e-06
1.30397e-06
1.30427e-06
1.30237e-06
1.29903e-06
1.29903e-06
1.29903e-06
1.29903e-06
1.29903e-06
1.29903e-06
1.3022e-06
1.30275e-06
1.30243e-06
1.29903e-06
1.29903e-06
1.29903e-06
1.29903e-06
1.29903e-06
1.29903e-06
1.30229e-06
1.3041e-06
1.30403e-06
1.30193e-06
1.29903e-06
1.29903e-06
1.29903e-06
1.29903e-06
1.30174e-06
1.30251e-06
1.30432e-06
1.30428e-06
1.3026e-06
1.30237e-06
1.30224e-06
1.3022e-06
1.30229e-06
1.30251e-06
1.30401e-06
1.30426e-06
1.30397e-06
1.30276e-06
1.3041e-06
1.30432e-06
1.28721e-06
1.28705e-06
1.28698e-06
1.28527e-06
1.28516e-06
1.28514e-06
1.28521e-06
1.2868e-06
1.28706e-06
1.28698e-06
1.28483e-06
1.28181e-06
1.28181e-06
1.28181e-06
1.28181e-06
1.2847e-06
1.28537e-06
1.28526e-06
1.28181e-06
1.28181e-06
1.28181e-06
1.28181e-06
1.28181e-06
1.28181e-06
1.28514e-06
1.28703e-06
1.28721e-06
1.28516e-06
1.28181e-06
1.28181e-06
1.28181e-06
1.28181e-06
1.28181e-06
1.28181e-06
1.28501e-06
1.28674e-06
1.28705e-06
1.28514e-06
1.28181e-06
1.28181e-06
1.28181e-06
1.28181e-06
1.28181e-06
1.28181e-06
1.28497e-06
1.28553e-06
1.28521e-06
1.28181e-06
1.28181e-06
1.28181e-06
1.28181e-06
1.28181e-06
1.28181e-06
1.28507e-06
1.28687e-06
1.2868e-06
1.2847e-06
1.28181e-06
1.28181e-06
1.28181e-06
1.28181e-06
1.28451e-06
1.28528e-06
1.2871e-06
1.28706e-06
1.28537e-06
1.28514e-06
1.28501e-06
1.28497e-06
1.28507e-06
1.28528e-06
1.28678e-06
1.28703e-06
1.28675e-06
1.28553e-06
1.28687e-06
1.2871e-06
1.26998e-06
1.26982e-06
1.26975e-06
1.26804e-06
1.26793e-06
1.26791e-06
1.26798e-06
1.26957e-06
1.26983e-06
1.26975e-06
1.2676e-06
1.26458e-06
1.26458e-06
1.26458e-06
1.26458e-06
1.26748e-06
1.26815e-06
1.26804e-06
1.26458e-06
1.26458e-06
1.26458e-06
1.26458e-06
1.26458e-06
1.26458e-06
1.26792e-06
1.2698e-06
1.26998e-06
1.26793e-06
1.26458e-06
1.26458e-06
1.26458e-06
1.26458e-06
1.26458e-06
1.26458e-06
1.26779e-06
1.26952e-06
1.26982e-06
1.26791e-06
1.26458e-06
1.26458e-06
1.26458e-06
1.26458e-06
1.26458e-06
1.26458e-06
1.26775e-06
1.2683e-06
1.26798e-06
1.26458e-06
1.26458e-06
1.26458e-06
1.26458e-06
1.26458e-06
1.26458e-06
1.26784e-06
1.26965e-06
1.26957e-06
1.26748e-06
1.26458e-06
1.26458e-06
1.26458e-06
1.26458e-06
1.26728e-06
1.26805e-06
1.26987e-06
1.26983e-06
1.26815e-06
1.26792e-06
1.26779e-06
1.26775e-06
1.26784e-06
1.26806e-06
1.26956e-06
1.2698e-06
1.26952e-06
1.2683e-06
1.26965e-06
1.26987e-06
1.25276e-06
1.2526e-06
1.25253e-06
1.25081e-06
1.25071e-06
1.25069e-06
1.25075e-06
1.25235e-06
1.25261e-06
1.25253e-06
1.25038e-06
1.24735e-06
1.24735e-06
1.24735e-06
1.24735e-06
1.25025e-06
1.25092e-06
1.25081e-06
1.24735e-06
1.24735e-06
1.24735e-06
1.24735e-06
1.24735e-06
1.24735e-06
1.25069e-06
1.25258e-06
1.25276e-06
1.25071e-06
1.24735e-06
1.24735e-06
1.24735e-06
1.24735e-06
1.24735e-06
1.24735e-06
1.25056e-06
1.25229e-06
1.2526e-06
1.25069e-06
1.24735e-06
1.24735e-06
1.24735e-06
1.24735e-06
1.24735e-06
1.24735e-06
1.25052e-06
1.25108e-06
1.25075e-06
1.24735e-06
1.24735e-06
1.24735e-06
1.24735e-06
1.24735e-06
1.24735e-06
1.25062e-06
1.25242e-06
1.25235e-06
1.25025e-06
1.24735e-06
1.24735e-06
1.24735e-06
1.24735e-06
1.25006e-06
1.25083e-06
1.25264e-06
1.25261e-06
1.25092e-06
1.25069e-06
1.25056e-06
1.25052e-06
1.25062e-06
1.25083e-06
1.25233e-06
1.25258e-06
1.25229e-06
1.25108e-06
1.25242e-06
1.25264e-06
1.23553e-06
1.23537e-06
1.2353e-06
1.23359e-06
1.23348e-06
1.23346e-06
1.23353e-06
1.23512e-06
1.23538e-06
1.2353e-06
1.23315e-06
1.23013e-06
1.23013e-06
1.23013e-06
1.23013e-06
1.23302e-06
1.23369e-06
1.23358e-06
1.23013e-06
1.23013e-06
1.23013e-06
1.23013e-06
1.23013e-06
1.23013e-06
1.23346e-06
1.23535e-06
1.23553e-06
1.23348e-06
1.23013e-06
1.23013e-06
1.23013e-06
1.23013e-06
1.23013e-06
1.23013e-06
1.23334e-06
1.23507e-06
1.23537e-06
1.23346e-06
1.23013e-06
1.23013e-06
1.23013e-06
1.23013e-06
1.23013e-06
1.23013e-06
1.23329e-06
1.23385e-06
1.23353e-06
1.23013e-06
1.23013e-06
1.23013e-06
1.23013e-06
1.23013e-06
1.23013e-06
1.23339e-06
1.2352e-06
1.23512e-06
1.23302e-06
1.23013e-06
1.23013e-06
1.23013e-06
1.23013e-06
1.23283e-06
1.2336e-06
1.23542e-06
1.23538e-06
1.23369e-06
1.23346e-06
1.23334e-06
1.2333e-06
1.23339e-06
1.2336e-06
1.2351e-06
1.23535e-06
1.23506e-06
1.23385e-06
1.23519e-06
1.23542e-06
1.2183e-06
1.21814e-06
1.21807e-06
1.21636e-06
1.21625e-06
1.21624e-06
1.2163e-06
1.2179e-06
1.21815e-06
1.21808e-06
1.21592e-06
1.2129e-06
1.2129e-06
1.2129e-06
1.2129e-06
1.2158e-06
1.21647e-06
1.21636e-06
1.2129e-06
1.2129e-06
1.2129e-06
1.2129e-06
1.2129e-06
1.2129e-06
1.21624e-06
1.21812e-06
1.2183e-06
1.21625e-06
1.2129e-06
1.2129e-06
1.2129e-06
1.2129e-06
1.2129e-06
1.2129e-06
1.21611e-06
1.21784e-06
1.21814e-06
1.21624e-06
1.2129e-06
1.2129e-06
1.2129e-06
1.2129e-06
1.2129e-06
1.2129e-06
1.21607e-06
1.21662e-06
1.2163e-06
1.2129e-06
1.2129e-06
1.2129e-06
1.2129e-06
1.2129e-06
1.2129e-06
1.21616e-06
1.21797e-06
1.2179e-06
1.2158e-06
1.2129e-06
1.2129e-06
1.2129e-06
1.2129e-06
1.21561e-06
1.21638e-06
1.21819e-06
1.21815e-06
1.21647e-06
1.21624e-06
1.21611e-06
1.21607e-06
1.21616e-06
1.21638e-06
1.21788e-06
1.21812e-06
1.21784e-06
1.21663e-06
1.21797e-06
1.21819e-06
1.20108e-06
1.20092e-06
1.20085e-06
1.19914e-06
1.19903e-06
1.19901e-06
1.19908e-06
1.20067e-06
1.20093e-06
1.20085e-06
1.1987e-06
1.19568e-06
1.19568e-06
1.19568e-06
1.19568e-06
1.19857e-06
1.19924e-06
1.19913e-06
1.19568e-06
1.19568e-06
1.19568e-06
1.19568e-06
1.19568e-06
1.19568e-06
1.19901e-06
1.2009e-06
1.20108e-06
1.19903e-06
1.19568e-06
1.19568e-06
1.19568e-06
1.19568e-06
1.19568e-06
1.19568e-06
1.19888e-06
1.20061e-06
1.20092e-06
1.19901e-06
1.19568e-06
1.19568e-06
1.19568e-06
1.19568e-06
1.19568e-06
1.19568e-06
1.19884e-06
1.1994e-06
1.19908e-06
1.19568e-06
1.19568e-06
1.19568e-06
1.19568e-06
1.19568e-06
1.19568e-06
1.19894e-06
1.20074e-06
1.20067e-06
1.19857e-06
1.19568e-06
1.19568e-06
1.19568e-06
1.19568e-06
1.19838e-06
1.19915e-06
1.20097e-06
1.20093e-06
1.19924e-06
1.19901e-06
1.19889e-06
1.19884e-06
1.19894e-06
1.19915e-06
1.20065e-06
1.2009e-06
1.20061e-06
1.1994e-06
1.20074e-06
1.20097e-06
1.18385e-06
1.18369e-06
1.18362e-06
1.18191e-06
1.1818e-06
1.18178e-06
1.18185e-06
1.18344e-06
1.1837e-06
1.18362e-06
1.18147e-06
1.17845e-06
1.17845e-06
1.17845e-06
1.17845e-06
1.18135e-06
1.18202e-06
1.18191e-06
1.17845e-06
1.17845e-06
1.17845e-06
1.17845e-06
1.17845e-06
1.17845e-06
1.18179e-06
1.18367e-06
1.18385e-06
1.1818e-06
1.17845e-06
1.17845e-06
1.17845e-06
1.17845e-06
1.17845e-06
1.17845e-06
1.18166e-06
1.18339e-06
1.18369e-06
1.18178e-06
1.17845e-06
1.17845e-06
1.17845e-06
1.17845e-06
1.17845e-06
1.17845e-06
1.18162e-06
1.18217e-06
1.18185e-06
1.17845e-06
1.17845e-06
1.17845e-06
1.17845e-06
1.17845e-06
1.17845e-06
1.18171e-06
1.18352e-06
1.18344e-06
1.18135e-06
1.17845e-06
1.17845e-06
1.17845e-06
1.17845e-06
1.18115e-06
1.18192e-06
1.18374e-06
1.1837e-06
1.18202e-06
1.18179e-06
1.18166e-06
1.18162e-06
1.18171e-06
1.18193e-06
1.18343e-06
1.18367e-06
1.18339e-06
1.18217e-06
1.18352e-06
1.18374e-06
1.16663e-06
1.16647e-06
1.1664e-06
1.16468e-06
1.16458e-06
1.16456e-06
1.16462e-06
1.16622e-06
1.16648e-06
1.1664e-06
1.16425e-06
1.16123e-06
1.16123e-06
1.16123e-06
1.16123e-06
1.16412e-06
1.16479e-06
1.16468e-06
1.16123e-06
1.16123e-06
1.16123e-06
1.16123e-06
1.16123e-06
1.16123e-06
1.16456e-06
1.16645e-06
1.16662e-06
1.16458e-06
1.16123e-06
1.16123e-06
1.16123e-06
1.16123e-06
1.16123e-06
1.16123e-06
1.16443e-06
1.16616e-06
1.16647e-06
1.16456e-06
1.16123e-06
1.16123e-06
1.16123e-06
1.16123e-06
1.16123e-06
1.16123e-06
1.16439e-06
1.16495e-06
1.16462e-06
1.16123e-06
1.16123e-06
1.16123e-06
1.16123e-06
1.16123e-06
1.16123e-06
1.16449e-06
1.16629e-06
1.16622e-06
1.16412e-06
1.16123e-06
1.16123e-06
1.16123e-06
1.16123e-06
1.16393e-06
1.1647e-06
1.16651e-06
1.16648e-06
1.16479e-06
1.16456e-06
1.16443e-06
1.16439e-06
1.16449e-06
1.1647e-06
1.1662e-06
1.16645e-06
1.16616e-06
1.16495e-06
1.16629e-06
1.16651e-06
1.1494e-06
1.14924e-06
1.14917e-06
1.14746e-06
1.14735e-06
1.14733e-06
1.1474e-06
1.14899e-06
1.14925e-06
1.14917e-06
1.14702e-06
1.144e-06
1.144e-06
1.144e-06
1.144e-06
1.1469e-06
1.14757e-06
1.14746e-06
1.144e-06
1.144e-06
1.144e-06
1.144e-06
1.144e-06
1.144e-06
1.14733e-06
1.14922e-06
1.1494e-06
1.14735e-06
1.144e-06
1.144e-06
1.144e-06
1.144e-06
1.144e-06
1.144e-06
1.14721e-06
1.14894e-06
1.14925e-06
1.14733e-06
1.144e-06
1.144e-06
1.144e-06
1.144e-06
1.144e-06
1.144e-06
1.14717e-06
1.14772e-06
1.1474e-06
1.144e-06
1.144e-06
1.144e-06
1.144e-06
1.144e-06
1.144e-06
1.14726e-06
1.14907e-06
1.14899e-06
1.1469e-06
1.144e-06
1.144e-06
1.144e-06
1.144e-06
1.1467e-06
1.14747e-06
1.14929e-06
1.14925e-06
1.14757e-06
1.14733e-06
1.14721e-06
1.14717e-06
1.14726e-06
1.14747e-06
1.14898e-06
1.14922e-06
1.14894e-06
1.14772e-06
1.14907e-06
1.14929e-06
1.13218e-06
1.13202e-06
1.13195e-06
1.13023e-06
1.13013e-06
1.13011e-06
1.13017e-06
1.13177e-06
1.13203e-06
1.13195e-06
1.1298e-06
1.12677e-06
1.12677e-06
1.12677e-06
1.12677e-06
1.12967e-06
1.13034e-06
1.13023e-06
1.12677e-06
1.12677e-06
1.12677e-06
1.12677e-06
1.12677e-06
1.12677e-06
1.13011e-06
1.132e-06
1.13218e-06
1.13013e-06
1.12677e-06
1.12677e-06
1.12677e-06
1.12677e-06
1.12677e-06
1.12677e-06
1.12998e-06
1.13171e-06
1.13201e-06
1.13011e-06
1.12677e-06
1.12677e-06
1.12677e-06
1.12677e-06
1.12677e-06
1.12677e-06
1.12994e-06
1.1305e-06
1.13017e-06
1.12677e-06
1.12677e-06
1.12677e-06
1.12677e-06
1.12677e-06
1.12677e-06
1.13004e-06
1.13184e-06
1.13177e-06
1.12967e-06
1.12677e-06
1.12677e-06
1.12677e-06
1.12677e-06
1.12948e-06
1.13025e-06
1.13206e-06
1.13202e-06
1.13034e-06
1.13011e-06
1.12998e-06
1.12994e-06
1.13004e-06
1.13025e-06
1.13175e-06
1.132e-06
1.13171e-06
1.1305e-06
1.13184e-06
1.13206e-06
1.11495e-06
1.11479e-06
1.11472e-06
1.11301e-06
1.1129e-06
1.11288e-06
1.11295e-06
1.11454e-06
1.1148e-06
1.11472e-06
1.11257e-06
1.10955e-06
1.10955e-06
1.10955e-06
1.10955e-06
1.11244e-06
1.11311e-06
1.113e-06
1.10955e-06
1.10955e-06
1.10955e-06
1.10955e-06
1.10955e-06
1.10955e-06
1.11288e-06
1.11477e-06
1.11495e-06
1.1129e-06
1.10955e-06
1.10955e-06
1.10955e-06
1.10955e-06
1.10955e-06
1.10955e-06
1.11276e-06
1.11449e-06
1.11479e-06
1.11288e-06
1.10955e-06
1.10955e-06
1.10955e-06
1.10955e-06
1.10955e-06
1.10955e-06
1.11271e-06
1.11327e-06
1.11295e-06
1.10955e-06
1.10955e-06
1.10955e-06
1.10955e-06
1.10955e-06
1.10955e-06
1.11281e-06
1.11462e-06
1.11454e-06
1.11244e-06
1.10955e-06
1.10955e-06
1.10955e-06
1.10955e-06
1.11225e-06
1.11302e-06
1.11484e-06
1.1148e-06
1.11311e-06
1.11288e-06