/*--------------------------------*- C++ -*----------------------------------*\
| =========                 |                                                 |
| \\      /  F ield         | OpenFOAM: The Open Source CFD Toolbox           |
|  \\    /   O peration     | Version:  v2012                                 |
|   \\  /    A nd           | Website:  www.openfoam.com                      |
|    \\/     M anipulation  |                                                 |
\*---------------------------------------------------------------------------*/
FoamFile
{
    version     2.0;
    format      ascii;
    class       volScalarField;
    location    "0.05";
    object      p;
}
// * * * * * * * * * * * * * * * * * * * * * * * * * * * * * * * * * * * * * //

dimensions      [0 2 -2 0 0 0 0];


internalField   nonuniform List<scalar> 
244288
(
2.57844e-06
2.58125e-06
2.58103e-06
2.58025e-06
2.57967e-06
2.58038e-06
2.58113e-06
2.58126e-06
2.58153e-06
2.58152e-06
2.5811e-06
2.58083e-06
2.58117e-06
2.58156e-06
2.5815e-06
2.58104e-06
2.58152e-06
2.58137e-06
2.58097e-06
2.58078e-06
2.58102e-06
2.58142e-06
2.5815e-06
2.58095e-06
2.58026e-06
2.5811e-06
2.58097e-06
2.58059e-06
2.58043e-06
2.58063e-06
2.58101e-06
2.58107e-06
2.58005e-06
2.57844e-06
2.57967e-06
2.58082e-06
2.58078e-06
2.58042e-06
2.58027e-06
2.58047e-06
2.58082e-06
2.58077e-06
2.57944e-06
2.58037e-06
2.58116e-06
2.58102e-06
2.58063e-06
2.58047e-06
2.58068e-06
2.58107e-06
2.58114e-06
2.5802e-06
2.58111e-06
2.58155e-06
2.58142e-06
2.58101e-06
2.58082e-06
2.58106e-06
2.58147e-06
2.58154e-06
2.58107e-06
2.58149e-06
2.5815e-06
2.58107e-06
2.58076e-06
2.58113e-06
2.58154e-06
2.58147e-06
2.58096e-06
2.58006e-06
2.57944e-06
2.58018e-06
2.58105e-06
2.54482e-06
2.54332e-06
2.54579e-06
2.54404e-06
2.54331e-06
2.54331e-06
2.54336e-06
2.54723e-06
2.54673e-06
2.54579e-06
2.54328e-06
2.54021e-06
2.5399e-06
2.53991e-06
2.54022e-06
2.54533e-06
2.54443e-06
2.54404e-06
2.5402e-06
2.54002e-06
2.53994e-06
2.53994e-06
2.54003e-06
2.54021e-06
2.5453e-06
2.54796e-06
2.54496e-06
2.54331e-06
2.53989e-06
2.53993e-06
2.53996e-06
2.53996e-06
2.53995e-06
2.53992e-06
2.54441e-06
2.54601e-06
2.54309e-06
2.54329e-06
2.53989e-06
2.53994e-06
2.53996e-06
2.53996e-06
2.53995e-06
2.53992e-06
2.54441e-06
2.54249e-06
2.54333e-06
2.54021e-06
2.54002e-06
2.53994e-06
2.53994e-06
2.54004e-06
2.54024e-06
2.54471e-06
2.54467e-06
2.54719e-06
2.54532e-06
2.5402e-06
2.5399e-06
2.5399e-06
2.54021e-06
2.54601e-06
2.54538e-06
2.54823e-06
2.54672e-06
2.54443e-06
2.54529e-06
2.54441e-06
2.54438e-06
2.54468e-06
2.54532e-06
2.54908e-06
2.54798e-06
2.54606e-06
2.54245e-06
2.54459e-06
2.54819e-06
2.52301e-06
2.52308e-06
2.52313e-06
2.52037e-06
2.52036e-06
2.52008e-06
2.5205e-06
2.52485e-06
2.52433e-06
2.52311e-06
2.52e-06
2.5169e-06
2.51647e-06
2.51646e-06
2.51698e-06
2.5244e-06
2.52171e-06
2.52036e-06
2.51689e-06
2.51569e-06
2.51561e-06
2.51561e-06
2.51572e-06
2.51701e-06
2.52513e-06
2.52538e-06
2.52307e-06
2.52039e-06
2.51644e-06
2.5156e-06
2.51553e-06
2.51554e-06
2.51562e-06
2.51646e-06
2.52433e-06
2.52368e-06
2.52291e-06
2.52008e-06
2.51645e-06
2.5156e-06
2.51553e-06
2.51553e-06
2.51562e-06
2.51648e-06
2.52381e-06
2.51984e-06
2.52047e-06
2.51695e-06
2.5157e-06
2.51559e-06
2.51559e-06
2.51571e-06
2.51701e-06
2.52492e-06
2.52455e-06
2.52487e-06
2.52437e-06
2.51696e-06
2.51642e-06
2.51641e-06
2.51694e-06
2.52675e-06
2.52374e-06
2.52488e-06
2.52435e-06
2.5217e-06
2.5251e-06
2.52429e-06
2.52376e-06
2.52487e-06
2.52376e-06
2.52616e-06
2.52535e-06
2.52355e-06
2.51982e-06
2.52447e-06
2.5249e-06
2.49632e-06
2.49635e-06
2.49676e-06
2.49359e-06
2.49361e-06
2.49323e-06
2.49384e-06
2.4986e-06
2.49805e-06
2.4968e-06
2.49235e-06
2.48891e-06
2.48875e-06
2.48875e-06
2.48897e-06
2.49743e-06
2.49561e-06
2.49357e-06
2.4889e-06
2.48864e-06
2.48861e-06
2.48861e-06
2.48866e-06
2.48894e-06
2.49933e-06
2.49912e-06
2.49633e-06
2.49361e-06
2.48873e-06
2.4886e-06
2.4886e-06
2.4886e-06
2.48862e-06
2.48876e-06
2.49907e-06
2.49711e-06
2.49628e-06
2.49324e-06
2.48875e-06
2.48861e-06
2.4886e-06
2.4886e-06
2.48862e-06
2.48877e-06
2.49861e-06
2.49339e-06
2.49384e-06
2.48896e-06
2.48865e-06
2.48861e-06
2.48861e-06
2.48866e-06
2.48898e-06
2.49949e-06
2.49803e-06
2.49865e-06
2.49742e-06
2.48894e-06
2.48874e-06
2.48875e-06
2.48894e-06
2.50112e-06
2.49754e-06
2.49875e-06
2.4981e-06
2.49563e-06
2.49933e-06
2.49907e-06
2.4986e-06
2.49949e-06
2.49763e-06
2.49967e-06
2.4991e-06
2.49705e-06
2.49339e-06
2.49801e-06
2.49877e-06
2.47036e-06
2.47039e-06
2.47027e-06
2.46697e-06
2.46706e-06
2.46659e-06
2.46734e-06
2.47226e-06
2.47155e-06
2.47028e-06
2.46465e-06
2.46134e-06
2.46132e-06
2.46132e-06
2.46137e-06
2.4703e-06
2.46933e-06
2.46696e-06
2.46134e-06
2.4613e-06
2.4613e-06
2.4613e-06
2.46131e-06
2.46136e-06
2.47317e-06
2.47295e-06
2.47045e-06
2.46706e-06
2.46132e-06
2.4613e-06
2.46131e-06
2.46131e-06
2.46131e-06
2.46132e-06
2.47353e-06
2.47113e-06
2.47041e-06
2.46658e-06
2.46132e-06
2.4613e-06
2.46131e-06
2.46131e-06
2.46131e-06
2.46133e-06
2.47318e-06
2.46749e-06
2.46735e-06
2.46137e-06
2.46131e-06
2.46131e-06
2.46131e-06
2.46131e-06
2.46137e-06
2.47364e-06
2.47199e-06
2.47227e-06
2.47029e-06
2.46136e-06
2.46133e-06
2.46133e-06
2.46136e-06
2.47506e-06
2.47127e-06
2.47247e-06
2.47154e-06
2.46933e-06
2.47317e-06
2.47354e-06
2.4732e-06
2.47369e-06
2.47143e-06
2.47327e-06
2.47292e-06
2.47113e-06
2.46751e-06
2.47202e-06
2.47254e-06
2.44367e-06
2.44382e-06
2.44348e-06
2.44012e-06
2.4402e-06
2.43968e-06
2.44051e-06
2.4455e-06
2.44477e-06
2.44351e-06
2.43744e-06
2.43415e-06
2.43415e-06
2.43415e-06
2.43416e-06
2.4432e-06
2.44255e-06
2.44011e-06
2.43414e-06
2.43414e-06
2.43415e-06
2.43415e-06
2.43415e-06
2.43416e-06
2.4464e-06
2.44621e-06
2.44379e-06
2.44019e-06
2.43415e-06
2.43415e-06
2.43415e-06
2.43416e-06
2.43415e-06
2.43416e-06
2.44695e-06
2.44448e-06
2.44387e-06
2.43968e-06
2.43415e-06
2.43415e-06
2.43416e-06
2.43416e-06
2.43416e-06
2.43416e-06
2.44664e-06
2.44091e-06
2.44049e-06
2.43419e-06
2.43416e-06
2.43416e-06
2.43416e-06
2.43416e-06
2.43416e-06
2.44698e-06
2.44533e-06
2.44551e-06
2.44323e-06
2.43417e-06
2.43417e-06
2.43417e-06
2.43417e-06
2.44837e-06
2.44454e-06
2.44577e-06
2.44477e-06
2.44256e-06
2.44641e-06
2.44697e-06
2.44666e-06
2.44701e-06
2.44468e-06
2.44649e-06
2.44623e-06
2.44448e-06
2.44092e-06
2.44534e-06
2.44579e-06
2.41682e-06
2.41688e-06
2.41641e-06
2.41311e-06
2.4132e-06
2.41267e-06
2.41353e-06
2.41853e-06
2.41779e-06
2.41653e-06
2.41038e-06
2.40707e-06
2.40706e-06
2.40707e-06
2.40707e-06
2.41615e-06
2.41559e-06
2.41312e-06
2.40707e-06
2.40707e-06
2.40707e-06
2.40707e-06
2.40707e-06
2.40707e-06
2.41942e-06
2.41923e-06
2.41687e-06
2.41319e-06
2.40708e-06
2.40707e-06
2.40707e-06
2.40707e-06
2.40707e-06
2.40707e-06
2.42003e-06
2.41753e-06
2.4168e-06
2.41266e-06
2.40709e-06
2.40708e-06
2.40708e-06
2.40707e-06
2.40707e-06
2.40707e-06
2.41972e-06
2.41399e-06
2.41353e-06
2.40709e-06
2.40708e-06
2.40708e-06
2.40707e-06
2.40707e-06
2.40707e-06
2.42004e-06
2.41839e-06
2.41857e-06
2.41618e-06
2.40708e-06
2.40708e-06
2.40707e-06
2.40707e-06
2.42143e-06
2.4176e-06
2.4188e-06
2.41781e-06
2.41562e-06
2.41946e-06
2.42006e-06
2.41975e-06
2.42007e-06
2.41772e-06
2.41951e-06
2.4193e-06
2.41754e-06
2.41399e-06
2.41841e-06
2.41883e-06
2.38981e-06
2.38988e-06
2.38938e-06
2.3861e-06
2.38619e-06
2.38565e-06
2.3865e-06
2.39151e-06
2.39075e-06
2.38951e-06
2.38326e-06
2.38001e-06
2.38002e-06
2.38001e-06
2.38001e-06
2.3891e-06
2.38857e-06
2.38608e-06
2.38001e-06
2.38001e-06
2.38001e-06
2.38001e-06
2.38001e-06
2.38002e-06
2.39241e-06
2.39221e-06
2.38981e-06
2.38618e-06
2.38001e-06
2.38001e-06
2.38001e-06
2.38001e-06
2.38001e-06
2.38001e-06
2.39302e-06
2.39052e-06
2.3899e-06
2.38564e-06
2.38001e-06
2.38001e-06
2.38001e-06
2.38001e-06
2.38001e-06
2.38001e-06
2.39272e-06
2.38696e-06
2.38649e-06
2.38002e-06
2.38001e-06
2.38001e-06
2.38001e-06
2.38001e-06
2.38001e-06
2.39302e-06
2.39137e-06
2.39153e-06
2.38911e-06
2.38002e-06
2.38001e-06
2.38001e-06
2.38001e-06
2.3944e-06
2.39057e-06
2.39178e-06
2.39078e-06
2.38857e-06
2.39243e-06
2.39305e-06
2.39274e-06
2.39305e-06
2.3907e-06
2.39249e-06
2.39228e-06
2.39053e-06
2.38699e-06
2.39138e-06
2.39178e-06
2.36278e-06
2.36284e-06
2.36234e-06
2.35905e-06
2.35914e-06
2.3586e-06
2.35946e-06
2.36447e-06
2.36372e-06
2.36246e-06
2.35622e-06
2.35296e-06
2.35296e-06
2.35296e-06
2.35296e-06
2.36206e-06
2.36154e-06
2.359e-06
2.35297e-06
2.35296e-06
2.35296e-06
2.35296e-06
2.35296e-06
2.35296e-06
2.36537e-06
2.36518e-06
2.36271e-06
2.3592e-06
2.35296e-06
2.35296e-06
2.35296e-06
2.35296e-06
2.35296e-06
2.35296e-06
2.36598e-06
2.36348e-06
2.36271e-06
2.35861e-06
2.35295e-06
2.35296e-06
2.35296e-06
2.35296e-06
2.35296e-06
2.35296e-06
2.36568e-06
2.35994e-06
2.35944e-06
2.35295e-06
2.35295e-06
2.35296e-06
2.35296e-06
2.35296e-06
2.35296e-06
2.36599e-06
2.36433e-06
2.36449e-06
2.36205e-06
2.35296e-06
2.35296e-06
2.35296e-06
2.35296e-06
2.36737e-06
2.36355e-06
2.36474e-06
2.36373e-06
2.36151e-06
2.36537e-06
2.366e-06
2.36569e-06
2.366e-06
2.36366e-06
2.36545e-06
2.36522e-06
2.36347e-06
2.35993e-06
2.36434e-06
2.36475e-06
2.33573e-06
2.3358e-06
2.3353e-06
2.33201e-06
2.3321e-06
2.33155e-06
2.33242e-06
2.33743e-06
2.33668e-06
2.33542e-06
2.32918e-06
2.32592e-06
2.32591e-06
2.32591e-06
2.32591e-06
2.33501e-06
2.33449e-06
2.33202e-06
2.32592e-06
2.32592e-06
2.32591e-06
2.32591e-06
2.32591e-06
2.32591e-06
2.33832e-06
2.33813e-06
2.3357e-06
2.33213e-06
2.32592e-06
2.32591e-06
2.32591e-06
2.32591e-06
2.32591e-06
2.32591e-06
2.33893e-06
2.33644e-06
2.33562e-06
2.33154e-06
2.32591e-06
2.32591e-06
2.32591e-06
2.32591e-06
2.32591e-06
2.32591e-06
2.33864e-06
2.3329e-06
2.33236e-06
2.3259e-06
2.32591e-06
2.32591e-06
2.32591e-06
2.32591e-06
2.32591e-06
2.33893e-06
2.33728e-06
2.3374e-06
2.33499e-06
2.3259e-06
2.32591e-06
2.32591e-06
2.32591e-06
2.34033e-06
2.3365e-06
2.33769e-06
2.33666e-06
2.33445e-06
2.33832e-06
2.33895e-06
2.33865e-06
2.33896e-06
2.33661e-06
2.33841e-06
2.33817e-06
2.33643e-06
2.33289e-06
2.3373e-06
2.3377e-06
2.30868e-06
2.30876e-06
2.30829e-06
2.30495e-06
2.30504e-06
2.3045e-06
2.30537e-06
2.31038e-06
2.30963e-06
2.30837e-06
2.30214e-06
2.29886e-06
2.29886e-06
2.29886e-06
2.29886e-06
2.30796e-06
2.30744e-06
2.30492e-06
2.29887e-06
2.29886e-06
2.29886e-06
2.29886e-06
2.29886e-06
2.29886e-06
2.31127e-06
2.31108e-06
2.30856e-06
2.30506e-06
2.29887e-06
2.29886e-06
2.29886e-06
2.29886e-06
2.29886e-06
2.29886e-06
2.31189e-06
2.30939e-06
2.30867e-06
2.3045e-06
2.29886e-06
2.29886e-06
2.29886e-06
2.29886e-06
2.29886e-06
2.29886e-06
2.31159e-06
2.30585e-06
2.30534e-06
2.29886e-06
2.29886e-06
2.29886e-06
2.29886e-06
2.29886e-06
2.29886e-06
2.31189e-06
2.31024e-06
2.31038e-06
2.30795e-06
2.29886e-06
2.29886e-06
2.29886e-06
2.29886e-06
2.31329e-06
2.30945e-06
2.31065e-06
2.30962e-06
2.30743e-06
2.31128e-06
2.31189e-06
2.3116e-06
2.31192e-06
2.30956e-06
2.31136e-06
2.31112e-06
2.30938e-06
2.30585e-06
2.31025e-06
2.31064e-06
2.28163e-06
2.28169e-06
2.28123e-06
2.2779e-06
2.27799e-06
2.27745e-06
2.27831e-06
2.28333e-06
2.28258e-06
2.28133e-06
2.27508e-06
2.27181e-06
2.27181e-06
2.27181e-06
2.27181e-06
2.28091e-06
2.28039e-06
2.27789e-06
2.27181e-06
2.27181e-06
2.27181e-06
2.27181e-06
2.27181e-06
2.27181e-06
2.28422e-06
2.28404e-06
2.28159e-06
2.27799e-06
2.27181e-06
2.27181e-06
2.27181e-06
2.27181e-06
2.27181e-06
2.27181e-06
2.28484e-06
2.28234e-06
2.2817e-06
2.27744e-06
2.27181e-06
2.27181e-06
2.27181e-06
2.27181e-06
2.27181e-06
2.27181e-06
2.28454e-06
2.27879e-06
2.2783e-06
2.27181e-06
2.27181e-06
2.27181e-06
2.27181e-06
2.27181e-06
2.27181e-06
2.28484e-06
2.28318e-06
2.28333e-06
2.28091e-06
2.27181e-06
2.27181e-06
2.27181e-06
2.27181e-06
2.28623e-06
2.2824e-06
2.2836e-06
2.28257e-06
2.28038e-06
2.28423e-06
2.28485e-06
2.28456e-06
2.28487e-06
2.28251e-06
2.28431e-06
2.28407e-06
2.28233e-06
2.27881e-06
2.2832e-06
2.2836e-06
2.25457e-06
2.25465e-06
2.25416e-06
2.25085e-06
2.25094e-06
2.25039e-06
2.25126e-06
2.25628e-06
2.25552e-06
2.25427e-06
2.24803e-06
2.24475e-06
2.24475e-06
2.24476e-06
2.24476e-06
2.25386e-06
2.25334e-06
2.25086e-06
2.24475e-06
2.24475e-06
2.24476e-06
2.24476e-06
2.24476e-06
2.24476e-06
2.25717e-06
2.25698e-06
2.25452e-06
2.25094e-06
2.24476e-06
2.24476e-06
2.24476e-06
2.24476e-06
2.24476e-06
2.24476e-06
2.25779e-06
2.25529e-06
2.25464e-06
2.25041e-06
2.24476e-06
2.24476e-06
2.24476e-06
2.24476e-06
2.24476e-06
2.24476e-06
2.25749e-06
2.25175e-06
2.25123e-06
2.24477e-06
2.24476e-06
2.24476e-06
2.24476e-06
2.24476e-06
2.24476e-06
2.25779e-06
2.25614e-06
2.25628e-06
2.25387e-06
2.24476e-06
2.24477e-06
2.24477e-06
2.24476e-06
2.25919e-06
2.25535e-06
2.25655e-06
2.25552e-06
2.25334e-06
2.25719e-06
2.2578e-06
2.25751e-06
2.25783e-06
2.25547e-06
2.25726e-06
2.25703e-06
2.25528e-06
2.25176e-06
2.25615e-06
2.25655e-06
2.22753e-06
2.22759e-06
2.22708e-06
2.2238e-06
2.22389e-06
2.22334e-06
2.22421e-06
2.22922e-06
2.22847e-06
2.22721e-06
2.22098e-06
2.2177e-06
2.2177e-06
2.2177e-06
2.2177e-06
2.2268e-06
2.22628e-06
2.22378e-06
2.21769e-06
2.2177e-06
2.2177e-06
2.2177e-06
2.21771e-06
2.21771e-06
2.23012e-06
2.22994e-06
2.22766e-06
2.22386e-06
2.2177e-06
2.2177e-06
2.2177e-06
2.21771e-06
2.21771e-06
2.21771e-06
2.23073e-06
2.22824e-06
2.22748e-06
2.22335e-06
2.21771e-06
2.21771e-06
2.21771e-06
2.21771e-06
2.21771e-06
2.21771e-06
2.23044e-06
2.22469e-06
2.2242e-06
2.21771e-06
2.21771e-06
2.21771e-06
2.21771e-06
2.21771e-06
2.21771e-06
2.23074e-06
2.22909e-06
2.22925e-06
2.22682e-06
2.21771e-06
2.21771e-06
2.21771e-06
2.21771e-06
2.23214e-06
2.2283e-06
2.2295e-06
2.22848e-06
2.22631e-06
2.23015e-06
2.23077e-06
2.23047e-06
2.23078e-06
2.22842e-06
2.23021e-06
2.22999e-06
2.22824e-06
2.2247e-06
2.22911e-06
2.22951e-06
2.20047e-06
2.20053e-06
2.20003e-06
2.19675e-06
2.19684e-06
2.19629e-06
2.19716e-06
2.20217e-06
2.20142e-06
2.20016e-06
2.19392e-06
2.19065e-06
2.19065e-06
2.19065e-06
2.19065e-06
2.19976e-06
2.19923e-06
2.19674e-06
2.19065e-06
2.19065e-06
2.19065e-06
2.19065e-06
2.19065e-06
2.19066e-06
2.20306e-06
2.20288e-06
2.20053e-06
2.19682e-06
2.19065e-06
2.19065e-06
2.19065e-06
2.19065e-06
2.19066e-06
2.19066e-06
2.20368e-06
2.20119e-06
2.20059e-06
2.19629e-06
2.19066e-06
2.19066e-06
2.19066e-06
2.19066e-06
2.19066e-06
2.19066e-06
2.20339e-06
2.19764e-06
2.19712e-06
2.19066e-06
2.19066e-06
2.19066e-06
2.19066e-06
2.19066e-06
2.19066e-06
2.20368e-06
2.20204e-06
2.2022e-06
2.19976e-06
2.19066e-06
2.19066e-06
2.19065e-06
2.19065e-06
2.20508e-06
2.20125e-06
2.20244e-06
2.20143e-06
2.19923e-06
2.20309e-06
2.20372e-06
2.20341e-06
2.20372e-06
2.20136e-06
2.20316e-06
2.20294e-06
2.20118e-06
2.19765e-06
2.20205e-06
2.20245e-06
2.17342e-06
2.1735e-06
2.17298e-06
2.1697e-06
2.16978e-06
2.16924e-06
2.17011e-06
2.17512e-06
2.17437e-06
2.1731e-06
2.16686e-06
2.1636e-06
2.1636e-06
2.1636e-06
2.1636e-06
2.17271e-06
2.17218e-06
2.16968e-06
2.1636e-06
2.1636e-06
2.1636e-06
2.1636e-06
2.1636e-06
2.1636e-06
2.17601e-06
2.17583e-06
2.17342e-06
2.16979e-06
2.1636e-06
2.1636e-06
2.1636e-06
2.1636e-06
2.1636e-06
2.1636e-06
2.17663e-06
2.17413e-06
2.17342e-06
2.16924e-06
2.1636e-06
2.1636e-06
2.1636e-06
2.1636e-06
2.1636e-06
2.16361e-06
2.17633e-06
2.17059e-06
2.1701e-06
2.1636e-06
2.1636e-06
2.16361e-06
2.16361e-06
2.16361e-06
2.16361e-06
2.17664e-06
2.17498e-06
2.17514e-06
2.17269e-06
2.16361e-06
2.1636e-06
2.1636e-06
2.1636e-06
2.17803e-06
2.1742e-06
2.17539e-06
2.17438e-06
2.17218e-06
2.17603e-06
2.17665e-06
2.17635e-06
2.17666e-06
2.17431e-06
2.17611e-06
2.1759e-06
2.17413e-06
2.17059e-06
2.17499e-06
2.1754e-06
2.14637e-06
2.14644e-06
2.14593e-06
2.14264e-06
2.14274e-06
2.14219e-06
2.14306e-06
2.14807e-06
2.14732e-06
2.14605e-06
2.13982e-06
2.13655e-06
2.13655e-06
2.13655e-06
2.13655e-06
2.14565e-06
2.14513e-06
2.14263e-06
2.13655e-06
2.13655e-06
2.13655e-06
2.13655e-06
2.13655e-06
2.13655e-06
2.14897e-06
2.14878e-06
2.14631e-06
2.14273e-06
2.13655e-06
2.13655e-06
2.13655e-06
2.13655e-06
2.13655e-06
2.13656e-06
2.14958e-06
2.14708e-06
2.14645e-06
2.14218e-06
2.13655e-06
2.13655e-06
2.13655e-06
2.13655e-06
2.13656e-06
2.13656e-06
2.14929e-06
2.14354e-06
2.14306e-06
2.13655e-06
2.13655e-06
2.13655e-06
2.13655e-06
2.13656e-06
2.13656e-06
2.14959e-06
2.14793e-06
2.14808e-06
2.14564e-06
2.13655e-06
2.13655e-06
2.13656e-06
2.13656e-06
2.15098e-06
2.14714e-06
2.14834e-06
2.14732e-06
2.14512e-06
2.14897e-06
2.14957e-06
2.1493e-06
2.14961e-06
2.14727e-06
2.14904e-06
2.14881e-06
2.14708e-06
2.14351e-06
2.14792e-06
2.14834e-06
2.11932e-06
2.11938e-06
2.11888e-06
2.1156e-06
2.11569e-06
2.11514e-06
2.116e-06
2.12102e-06
2.12027e-06
2.11901e-06
2.11276e-06
2.1095e-06
2.1095e-06
2.1095e-06
2.1095e-06
2.1186e-06
2.11808e-06
2.11558e-06
2.1095e-06
2.1095e-06
2.1095e-06
2.1095e-06
2.1095e-06
2.1095e-06
2.12192e-06
2.12173e-06
2.11923e-06
2.11568e-06
2.1095e-06
2.1095e-06
2.1095e-06
2.1095e-06
2.1095e-06
2.1095e-06
2.12254e-06
2.12003e-06
2.11939e-06
2.11513e-06
2.1095e-06
2.1095e-06
2.1095e-06
2.1095e-06
2.1095e-06
2.10951e-06
2.12224e-06
2.1165e-06
2.116e-06
2.10949e-06
2.10949e-06
2.1095e-06
2.1095e-06
2.10951e-06
2.10951e-06
2.12255e-06
2.12089e-06
2.12102e-06
2.11859e-06
2.10949e-06
2.1095e-06
2.10951e-06
2.10951e-06
2.12394e-06
2.12011e-06
2.1213e-06
2.12026e-06
2.11806e-06
2.12191e-06
2.1225e-06
2.12224e-06
2.12256e-06
2.12023e-06
2.12201e-06
2.12175e-06
2.12011e-06
2.11641e-06
2.12088e-06
2.12131e-06
2.09227e-06
2.09235e-06
2.09183e-06
2.08854e-06
2.08863e-06
2.08809e-06
2.08896e-06
2.09397e-06
2.09322e-06
2.09195e-06
2.08571e-06
2.08245e-06
2.08245e-06
2.08245e-06
2.08245e-06
2.09155e-06
2.09103e-06
2.08853e-06
2.08245e-06
2.08245e-06
2.08245e-06
2.08245e-06
2.08245e-06
2.08245e-06
2.09486e-06
2.09467e-06
2.09222e-06
2.08864e-06
2.08245e-06
2.08245e-06
2.08245e-06
2.08245e-06
2.08245e-06
2.08245e-06
2.09548e-06
2.09298e-06
2.09223e-06
2.08807e-06
2.08245e-06
2.08245e-06
2.08245e-06
2.08245e-06
2.08245e-06
2.08245e-06
2.09518e-06
2.08944e-06
2.08894e-06
2.08244e-06
2.08245e-06
2.08245e-06
2.08245e-06
2.08245e-06
2.08246e-06
2.09549e-06
2.09383e-06
2.09397e-06
2.09155e-06
2.08244e-06
2.08245e-06
2.08245e-06
2.08246e-06
2.09689e-06
2.09304e-06
2.09424e-06
2.09322e-06
2.09103e-06
2.09487e-06
2.09546e-06
2.09519e-06
2.09552e-06
2.09318e-06
2.09495e-06
2.09472e-06
2.09305e-06
2.08943e-06
2.09382e-06
2.09423e-06
2.06522e-06
2.06528e-06
2.06478e-06
2.06149e-06
2.06158e-06
2.06103e-06
2.0619e-06
2.06691e-06
2.06616e-06
2.06491e-06
2.05866e-06
2.0554e-06
2.0554e-06
2.0554e-06
2.05539e-06
2.0645e-06
2.06398e-06
2.06148e-06
2.0554e-06
2.0554e-06
2.0554e-06
2.0554e-06
2.05539e-06
2.0554e-06
2.06781e-06
2.06762e-06
2.06513e-06
2.06159e-06
2.0554e-06
2.0554e-06
2.0554e-06
2.0554e-06
2.05539e-06
2.05539e-06
2.06842e-06
2.06592e-06
2.06524e-06
2.06102e-06
2.0554e-06
2.0554e-06
2.0554e-06
2.0554e-06
2.05539e-06
2.05539e-06
2.06812e-06
2.06238e-06
2.06189e-06
2.0554e-06
2.0554e-06
2.0554e-06
2.05539e-06
2.05539e-06
2.05539e-06
2.06843e-06
2.06677e-06
2.06692e-06
2.06449e-06
2.05541e-06
2.0554e-06
2.05539e-06
2.05539e-06
2.06982e-06
2.06599e-06
2.06718e-06
2.06616e-06
2.06396e-06
2.0678e-06
2.06845e-06
2.06819e-06
2.06847e-06
2.06611e-06
2.06789e-06
2.06761e-06
2.06586e-06
2.06244e-06
2.06681e-06
2.06721e-06
2.03816e-06
2.03822e-06
2.03773e-06
2.03444e-06
2.03454e-06
2.03398e-06
2.03484e-06
2.03986e-06
2.0391e-06
2.03785e-06
2.03161e-06
2.02835e-06
2.02835e-06
2.02834e-06
2.02834e-06
2.03744e-06
2.03692e-06
2.03442e-06
2.02834e-06
2.02834e-06
2.02834e-06
2.02834e-06
2.02834e-06
2.02834e-06
2.04075e-06
2.04057e-06
2.03808e-06
2.03453e-06
2.02834e-06
2.02834e-06
2.02834e-06
2.02834e-06
2.02834e-06
2.02834e-06
2.04137e-06
2.03887e-06
2.03819e-06
2.03397e-06
2.02834e-06
2.02835e-06
2.02835e-06
2.02834e-06
2.02834e-06
2.02834e-06
2.04107e-06
2.03533e-06
2.03486e-06
2.02835e-06
2.02835e-06
2.02835e-06
2.02834e-06
2.02834e-06
2.02834e-06
2.04137e-06
2.03971e-06
2.03989e-06
2.03745e-06
2.02835e-06
2.02835e-06
2.02834e-06
2.02834e-06
2.04277e-06
2.03893e-06
2.04012e-06
2.03912e-06
2.03692e-06
2.04077e-06
2.04143e-06
2.04111e-06
2.0414e-06
2.03906e-06
2.04083e-06
2.04057e-06
2.0388e-06
2.03544e-06
2.03971e-06
2.04018e-06
2.01112e-06
2.01116e-06
2.01067e-06
2.00739e-06
2.00749e-06
2.00693e-06
2.00778e-06
2.01281e-06
2.01205e-06
2.0108e-06
2.00456e-06
2.00129e-06
2.00129e-06
2.00129e-06
2.00129e-06
2.01039e-06
2.00987e-06
2.00737e-06
2.00129e-06
2.00129e-06
2.00129e-06
2.00129e-06
2.00129e-06
2.00129e-06
2.0137e-06
2.01351e-06
2.01107e-06
2.00748e-06
2.00129e-06
2.00129e-06
2.00129e-06
2.00129e-06
2.00129e-06
2.00129e-06
2.01432e-06
2.01183e-06
2.01118e-06
2.00693e-06
2.00129e-06
2.00129e-06
2.00129e-06
2.00129e-06
2.00129e-06
2.00129e-06
2.01402e-06
2.00828e-06
2.0078e-06
2.00129e-06
2.00129e-06
2.00129e-06
2.0013e-06
2.0013e-06
2.0013e-06
2.01432e-06
2.01267e-06
2.01283e-06
2.01039e-06
2.00129e-06
2.00129e-06
2.0013e-06
2.0013e-06
2.01572e-06
2.01189e-06
2.01308e-06
2.01207e-06
2.00987e-06
2.01371e-06
2.0143e-06
2.01405e-06
2.01434e-06
2.01201e-06
2.01378e-06
2.01354e-06
2.01189e-06
2.0082e-06
2.01263e-06
2.01308e-06
1.98406e-06
1.98411e-06
1.98362e-06
1.98033e-06
1.98044e-06
1.97987e-06
1.98073e-06
1.98576e-06
1.985e-06
1.98375e-06
1.97751e-06
1.97424e-06
1.97424e-06
1.97424e-06
1.97424e-06
1.98334e-06
1.98282e-06
1.98032e-06
1.97424e-06
1.97424e-06
1.97424e-06
1.97424e-06
1.97424e-06
1.97424e-06
1.98665e-06
1.98646e-06
1.98398e-06
1.98042e-06
1.97424e-06
1.97424e-06
1.97424e-06
1.97424e-06
1.97424e-06
1.97424e-06
1.98727e-06
1.98477e-06
1.98412e-06
1.97988e-06
1.97424e-06
1.97424e-06
1.97424e-06
1.97424e-06
1.97424e-06
1.97424e-06
1.98697e-06
1.98122e-06
1.98075e-06
1.97424e-06
1.97424e-06
1.97424e-06
1.97424e-06
1.97424e-06
1.97424e-06
1.98728e-06
1.98562e-06
1.98577e-06
1.98334e-06
1.97424e-06
1.97424e-06
1.97424e-06
1.97425e-06
1.98867e-06
1.98484e-06
1.98603e-06
1.98501e-06
1.98282e-06
1.98667e-06
1.98726e-06
1.98697e-06
1.98731e-06
1.98496e-06
1.98673e-06
1.98651e-06
1.98485e-06
1.98123e-06
1.98561e-06
1.98602e-06
1.95692e-06
1.95703e-06
1.95657e-06
1.9533e-06
1.95338e-06
1.95281e-06
1.95368e-06
1.95871e-06
1.95795e-06
1.9567e-06
1.95045e-06
1.94719e-06
1.94719e-06
1.94719e-06
1.94719e-06
1.95628e-06
1.95577e-06
1.95327e-06
1.94719e-06
1.94719e-06
1.94719e-06
1.94719e-06
1.94719e-06
1.94719e-06
1.9596e-06
1.95941e-06
1.95696e-06
1.95338e-06
1.94719e-06
1.94719e-06
1.94719e-06
1.94719e-06
1.94719e-06
1.94719e-06
1.96022e-06
1.95772e-06
1.95704e-06
1.95282e-06
1.94719e-06
1.94719e-06
1.94719e-06
1.94719e-06
1.94719e-06
1.94719e-06
1.95991e-06
1.95417e-06
1.9537e-06
1.94719e-06
1.94719e-06
1.94719e-06
1.94718e-06
1.94718e-06
1.94718e-06
1.96022e-06
1.95856e-06
1.95872e-06
1.95628e-06
1.94719e-06
1.94719e-06
1.94718e-06
1.94718e-06
1.96161e-06
1.95777e-06
1.95897e-06
1.95796e-06
1.95576e-06
1.9596e-06
1.96024e-06
1.95997e-06
1.96026e-06
1.9579e-06
1.95968e-06
1.95941e-06
1.95769e-06
1.9542e-06
1.95858e-06
1.95903e-06
1.92987e-06
1.92999e-06
1.92952e-06
1.92624e-06
1.92632e-06
1.92577e-06
1.92664e-06
1.93167e-06
1.93091e-06
1.92964e-06
1.9234e-06
1.92013e-06
1.92013e-06
1.92013e-06
1.92014e-06
1.92924e-06
1.92872e-06
1.92622e-06
1.92013e-06
1.92014e-06
1.92014e-06
1.92014e-06
1.92014e-06
1.92013e-06
1.93255e-06
1.93236e-06
1.92991e-06
1.92631e-06
1.92014e-06
1.92014e-06
1.92014e-06
1.92014e-06
1.92013e-06
1.92014e-06
1.93316e-06
1.93066e-06
1.93e-06
1.92577e-06
1.92014e-06
1.92014e-06
1.92014e-06
1.92013e-06
1.92013e-06
1.92013e-06
1.93286e-06
1.92712e-06
1.92665e-06
1.92014e-06
1.92014e-06
1.92014e-06
1.92013e-06
1.92013e-06
1.92013e-06
1.93316e-06
1.93151e-06
1.93168e-06
1.92922e-06
1.92015e-06
1.92014e-06
1.92013e-06
1.92013e-06
1.93456e-06
1.93071e-06
1.93191e-06
1.93092e-06
1.92871e-06
1.93254e-06
1.93318e-06
1.93291e-06
1.93319e-06
1.93085e-06
1.93262e-06
1.93237e-06
1.93057e-06
1.9272e-06
1.9315e-06
1.93196e-06
1.90288e-06
1.90298e-06
1.90246e-06
1.89918e-06
1.89926e-06
1.89871e-06
1.8996e-06
1.90462e-06
1.90386e-06
1.90259e-06
1.89634e-06
1.89308e-06
1.89308e-06
1.89309e-06
1.89309e-06
1.90219e-06
1.90167e-06
1.89916e-06
1.89308e-06
1.89308e-06
1.89308e-06
1.89308e-06
1.89309e-06
1.89309e-06
1.9055e-06
1.90531e-06
1.90281e-06
1.89927e-06
1.89308e-06
1.89308e-06
1.89308e-06
1.89308e-06
1.89308e-06
1.89308e-06
1.90611e-06
1.90361e-06
1.90296e-06
1.89872e-06
1.89309e-06
1.89308e-06
1.89308e-06
1.89308e-06
1.89308e-06
1.89308e-06
1.90581e-06
1.90007e-06
1.89958e-06
1.89309e-06
1.89308e-06
1.89308e-06
1.89308e-06
1.89308e-06
1.89308e-06
1.90612e-06
1.90446e-06
1.90461e-06
1.90216e-06
1.89308e-06
1.89308e-06
1.89308e-06
1.89308e-06
1.90751e-06
1.90367e-06
1.90487e-06
1.90386e-06
1.90165e-06
1.9055e-06
1.90617e-06
1.90585e-06
1.90614e-06
1.90379e-06
1.90557e-06
1.90533e-06
1.90356e-06
1.90013e-06
1.90449e-06
1.90489e-06
1.87576e-06
1.87592e-06
1.87542e-06
1.87213e-06
1.87222e-06
1.87167e-06
1.87255e-06
1.87756e-06
1.8768e-06
1.87553e-06
1.86929e-06
1.86603e-06
1.86603e-06
1.86603e-06
1.86604e-06
1.87514e-06
1.87462e-06
1.87211e-06
1.86603e-06
1.86603e-06
1.86603e-06
1.86603e-06
1.86603e-06
1.86603e-06
1.87845e-06
1.87826e-06
1.87585e-06
1.87223e-06
1.86603e-06
1.86603e-06
1.86603e-06
1.86603e-06
1.86603e-06
1.86603e-06
1.87906e-06
1.87656e-06
1.87593e-06
1.87167e-06
1.86603e-06
1.86603e-06
1.86603e-06
1.86603e-06
1.86603e-06
1.86603e-06
1.87876e-06
1.87302e-06
1.87252e-06
1.86603e-06
1.86603e-06
1.86603e-06
1.86603e-06
1.86603e-06
1.86603e-06
1.87906e-06
1.8774e-06
1.87755e-06
1.8751e-06
1.86603e-06
1.86603e-06
1.86603e-06
1.86603e-06
1.88046e-06
1.87661e-06
1.87781e-06
1.8768e-06
1.87459e-06
1.87845e-06
1.87908e-06
1.87877e-06
1.87908e-06
1.87674e-06
1.87852e-06
1.8783e-06
1.87655e-06
1.87303e-06
1.87741e-06
1.87782e-06
1.84881e-06
1.84887e-06
1.84838e-06
1.84509e-06
1.84518e-06
1.84462e-06
1.84549e-06
1.8505e-06
1.84975e-06
1.8485e-06
1.84223e-06
1.83899e-06
1.83899e-06
1.83899e-06
1.83898e-06
1.84809e-06
1.84756e-06
1.84505e-06
1.83899e-06
1.83899e-06
1.83899e-06
1.83898e-06
1.83898e-06
1.83898e-06
1.85139e-06
1.85121e-06
1.84877e-06
1.84521e-06
1.83899e-06
1.83899e-06
1.83898e-06
1.83898e-06
1.83898e-06
1.83898e-06
1.85201e-06
1.84952e-06
1.84877e-06
1.84462e-06
1.83898e-06
1.83898e-06
1.83898e-06
1.83898e-06
1.83898e-06
1.83898e-06
1.85171e-06
1.84597e-06
1.84546e-06
1.83897e-06
1.83898e-06
1.83898e-06
1.83898e-06
1.83898e-06
1.83898e-06
1.852e-06
1.85036e-06
1.85049e-06
1.84806e-06
1.83898e-06
1.83898e-06
1.83898e-06
1.83898e-06
1.8534e-06
1.84957e-06
1.85077e-06
1.84974e-06
1.84753e-06
1.85138e-06
1.85201e-06
1.85171e-06
1.85203e-06
1.84968e-06
1.85148e-06
1.85124e-06
1.84949e-06
1.84596e-06
1.85036e-06
1.85076e-06
1.82176e-06
1.82183e-06
1.82133e-06
1.81805e-06
1.81812e-06
1.81757e-06
1.81844e-06
1.82345e-06
1.8227e-06
1.82146e-06
1.8152e-06
1.81194e-06
1.81194e-06
1.81194e-06
1.81193e-06
1.82103e-06
1.82051e-06
1.81805e-06
1.81194e-06
1.81194e-06
1.81194e-06
1.81193e-06
1.81193e-06
1.81193e-06
1.82434e-06
1.82415e-06
1.8217e-06
1.81816e-06
1.81194e-06
1.81194e-06
1.81193e-06
1.81193e-06
1.81193e-06
1.81193e-06
1.82495e-06
1.82246e-06
1.82167e-06
1.81757e-06
1.81193e-06
1.81193e-06
1.81193e-06
1.81193e-06
1.81193e-06
1.81193e-06
1.82466e-06
1.81892e-06
1.81838e-06
1.81193e-06
1.81193e-06
1.81193e-06
1.81193e-06
1.81193e-06
1.81193e-06
1.82496e-06
1.82331e-06
1.82343e-06
1.82099e-06
1.81193e-06
1.81192e-06
1.81193e-06
1.81193e-06
1.82635e-06
1.82252e-06
1.82372e-06
1.82268e-06
1.82045e-06
1.82434e-06
1.82498e-06
1.82467e-06
1.82498e-06
1.82263e-06
1.82443e-06
1.82421e-06
1.82244e-06
1.8189e-06
1.82331e-06
1.82371e-06
1.7947e-06
1.79477e-06
1.79432e-06
1.79098e-06
1.79107e-06
1.79052e-06
1.79139e-06
1.7964e-06
1.79565e-06
1.79439e-06
1.78816e-06
1.78489e-06
1.78489e-06
1.78488e-06
1.78488e-06
1.79398e-06
1.79346e-06
1.79095e-06
1.78489e-06
1.78489e-06
1.78488e-06
1.78488e-06
1.78488e-06
1.78488e-06
1.79729e-06
1.79711e-06
1.79449e-06
1.7911e-06
1.78488e-06
1.78488e-06
1.78488e-06
1.78488e-06
1.78488e-06
1.78488e-06
1.79791e-06
1.79541e-06
1.79477e-06
1.79051e-06
1.78488e-06
1.78488e-06
1.78488e-06
1.78488e-06
1.78488e-06
1.78488e-06
1.79761e-06
1.79187e-06
1.79136e-06
1.78487e-06
1.78488e-06
1.78488e-06
1.78488e-06
1.78488e-06
1.78488e-06
1.79791e-06
1.79626e-06
1.79641e-06
1.79397e-06
1.78487e-06
1.78488e-06
1.78488e-06
1.78488e-06
1.7993e-06
1.79547e-06
1.79667e-06
1.79565e-06
1.79345e-06
1.7973e-06
1.79791e-06
1.79762e-06
1.79793e-06
1.79558e-06
1.79738e-06
1.79714e-06
1.7954e-06
1.79186e-06
1.79628e-06
1.79667e-06
1.76765e-06
1.76772e-06
1.76725e-06
1.76392e-06
1.76402e-06
1.76347e-06
1.76434e-06
1.76935e-06
1.7686e-06
1.76735e-06
1.7611e-06
1.75783e-06
1.75783e-06
1.75783e-06
1.75783e-06
1.76693e-06
1.76641e-06
1.76392e-06
1.75783e-06
1.75783e-06
1.75783e-06
1.75783e-06
1.75783e-06
1.75783e-06
1.77024e-06
1.77006e-06
1.7676e-06
1.76401e-06
1.75783e-06
1.75783e-06
1.75783e-06
1.75783e-06
1.75783e-06
1.75783e-06
1.77086e-06
1.76836e-06
1.76769e-06
1.76347e-06
1.75783e-06
1.75783e-06
1.75783e-06
1.75783e-06
1.75783e-06
1.75783e-06
1.77056e-06
1.76482e-06
1.76432e-06
1.75783e-06
1.75783e-06
1.75783e-06
1.75783e-06
1.75783e-06
1.75783e-06
1.77086e-06
1.7692e-06
1.76934e-06
1.76692e-06
1.75782e-06
1.75783e-06
1.75783e-06
1.75783e-06
1.77225e-06
1.76842e-06
1.76962e-06
1.76859e-06
1.7664e-06
1.77025e-06
1.77086e-06
1.77057e-06
1.77089e-06
1.76853e-06
1.77033e-06
1.77009e-06
1.76835e-06
1.76481e-06
1.76923e-06
1.76962e-06
1.7406e-06
1.74067e-06
1.74019e-06
1.73687e-06
1.73696e-06
1.73642e-06
1.73728e-06
1.7423e-06
1.74154e-06
1.74029e-06
1.73405e-06
1.73078e-06
1.73078e-06
1.73078e-06
1.73078e-06
1.73988e-06
1.73936e-06
1.73685e-06
1.73077e-06
1.73078e-06
1.73078e-06
1.73078e-06
1.73078e-06
1.73078e-06
1.74319e-06
1.743e-06
1.74054e-06
1.73696e-06
1.73077e-06
1.73078e-06
1.73078e-06
1.73078e-06
1.73078e-06
1.73078e-06
1.74381e-06
1.74131e-06
1.74063e-06
1.73641e-06
1.73077e-06
1.73077e-06
1.73078e-06
1.73078e-06
1.73078e-06
1.73078e-06
1.74351e-06
1.73777e-06
1.73727e-06
1.73077e-06
1.73077e-06
1.73077e-06
1.73078e-06
1.73078e-06
1.73078e-06
1.7438e-06
1.74216e-06
1.7423e-06
1.73987e-06
1.73077e-06
1.73077e-06
1.73078e-06
1.73078e-06
1.7452e-06
1.74137e-06
1.74256e-06
1.74154e-06
1.73935e-06