/*--------------------------------*- C++ -*----------------------------------*\
| =========                 |                                                 |
| \\      /  F ield         | OpenFOAM: The Open Source CFD Toolbox           |
|  \\    /   O peration     | Version:  v2012                                 |
|   \\  /    A nd           | Website:  www.openfoam.com                      |
|    \\/     M anipulation  |                                                 |
\*---------------------------------------------------------------------------*/
FoamFile
{
    version     2.0;
    format      ascii;
    class       volScalarField;
    location    "0.075";
    object      p;
}
// * * * * * * * * * * * * * * * * * * * * * * * * * * * * * * * * * * * * * //

dimensions      [0 2 -2 0 0 0 0];


internalField   nonuniform List<scalar> 
244288
(
2.37155e-06
2.37345e-06
2.3734e-06
2.37281e-06
2.37235e-06
2.37291e-06
2.37346e-06
2.37345e-06
2.37364e-06
2.37367e-06
2.37333e-06
2.37311e-06
2.37339e-06
2.3737e-06
2.37362e-06
2.3734e-06
2.37367e-06
2.37347e-06
2.37309e-06
2.37292e-06
2.37314e-06
2.37353e-06
2.37367e-06
2.37337e-06
2.37281e-06
2.37333e-06
2.37309e-06
2.37268e-06
2.37252e-06
2.37273e-06
2.37315e-06
2.37332e-06
2.37269e-06
2.37154e-06
2.37235e-06
2.37311e-06
2.37292e-06
2.37252e-06
2.37236e-06
2.37257e-06
2.37297e-06
2.37309e-06
2.3722e-06
2.3729e-06
2.37338e-06
2.37314e-06
2.37273e-06
2.37257e-06
2.37278e-06
2.3732e-06
2.37339e-06
2.3728e-06
2.37345e-06
2.3737e-06
2.37353e-06
2.37315e-06
2.37297e-06
2.3732e-06
2.37358e-06
2.3737e-06
2.37344e-06
2.37362e-06
2.37366e-06
2.37332e-06
2.37309e-06
2.37338e-06
2.3737e-06
2.3736e-06
2.37337e-06
2.37269e-06
2.3722e-06
2.3728e-06
2.37344e-06
2.33866e-06
2.33693e-06
2.33813e-06
2.3364e-06
2.33599e-06
2.33592e-06
2.336e-06
2.33913e-06
2.33879e-06
2.33812e-06
2.33553e-06
2.33256e-06
2.33237e-06
2.33237e-06
2.33257e-06
2.33736e-06
2.3366e-06
2.33639e-06
2.33256e-06
2.33237e-06
2.33232e-06
2.33232e-06
2.33237e-06
2.33257e-06
2.33755e-06
2.33988e-06
2.33865e-06
2.33599e-06
2.33237e-06
2.33232e-06
2.33234e-06
2.33234e-06
2.33232e-06
2.33238e-06
2.33698e-06
2.3385e-06
2.33687e-06
2.33592e-06
2.33237e-06
2.33232e-06
2.33234e-06
2.33234e-06
2.33233e-06
2.33239e-06
2.33694e-06
2.3355e-06
2.33599e-06
2.33257e-06
2.33237e-06
2.33232e-06
2.33232e-06
2.33238e-06
2.33258e-06
2.33718e-06
2.33738e-06
2.33912e-06
2.33735e-06
2.33256e-06
2.33237e-06
2.33238e-06
2.33257e-06
2.33807e-06
2.33744e-06
2.33997e-06
2.33878e-06
2.3366e-06
2.33754e-06
2.33698e-06
2.33693e-06
2.33717e-06
2.33742e-06
2.34037e-06
2.33987e-06
2.3385e-06
2.33549e-06
2.33736e-06
2.33997e-06
2.31685e-06
2.31668e-06
2.31674e-06
2.31397e-06
2.31398e-06
2.31383e-06
2.31407e-06
2.31795e-06
2.31761e-06
2.31673e-06
2.31306e-06
2.30972e-06
2.30928e-06
2.30926e-06
2.30971e-06
2.31636e-06
2.31512e-06
2.31396e-06
2.30972e-06
2.30852e-06
2.30846e-06
2.30845e-06
2.3085e-06
2.30974e-06
2.31745e-06
2.31863e-06
2.31676e-06
2.314e-06
2.30927e-06
2.30845e-06
2.30845e-06
2.30845e-06
2.30844e-06
2.30924e-06
2.31716e-06
2.31729e-06
2.31656e-06
2.31381e-06
2.30925e-06
2.30844e-06
2.30844e-06
2.30844e-06
2.30844e-06
2.30925e-06
2.31688e-06
2.31392e-06
2.31404e-06
2.30969e-06
2.30849e-06
2.30843e-06
2.30843e-06
2.30849e-06
2.30971e-06
2.31747e-06
2.31809e-06
2.31794e-06
2.31634e-06
2.30973e-06
2.30923e-06
2.30922e-06
2.30971e-06
2.31844e-06
2.31643e-06
2.31826e-06
2.3176e-06
2.3151e-06
2.31744e-06
2.31715e-06
2.31686e-06
2.31746e-06
2.31647e-06
2.31902e-06
2.3186e-06
2.31721e-06
2.31394e-06
2.31808e-06
2.31827e-06
2.2927e-06
2.29258e-06
2.29273e-06
2.2896e-06
2.28969e-06
2.28942e-06
2.2899e-06
2.29398e-06
2.29369e-06
2.29274e-06
2.28789e-06
2.28489e-06
2.28473e-06
2.28473e-06
2.28494e-06
2.29174e-06
2.29137e-06
2.28959e-06
2.28489e-06
2.28453e-06
2.28449e-06
2.2845e-06
2.28454e-06
2.2849e-06
2.29366e-06
2.29467e-06
2.29267e-06
2.2897e-06
2.28472e-06
2.28449e-06
2.28448e-06
2.28448e-06
2.2845e-06
2.28473e-06
2.29388e-06
2.29327e-06
2.29253e-06
2.28941e-06
2.28472e-06
2.28449e-06
2.28447e-06
2.28448e-06
2.2845e-06
2.28474e-06
2.29366e-06
2.29007e-06
2.28988e-06
2.28493e-06
2.28453e-06
2.28449e-06
2.28449e-06
2.28454e-06
2.28495e-06
2.29401e-06
2.2941e-06
2.29398e-06
2.29172e-06
2.2849e-06
2.28473e-06
2.28473e-06
2.2849e-06
2.29487e-06
2.29256e-06
2.29445e-06
2.29368e-06
2.29136e-06
2.29366e-06
2.29389e-06
2.29367e-06
2.29401e-06
2.2926e-06
2.29491e-06
2.29465e-06
2.29326e-06
2.29008e-06
2.29409e-06
2.29445e-06
2.26851e-06
2.26839e-06
2.26818e-06
2.26495e-06
2.26506e-06
2.26464e-06
2.2653e-06
2.2694e-06
2.26907e-06
2.26818e-06
2.26258e-06
2.2599e-06
2.25987e-06
2.25987e-06
2.25992e-06
2.26673e-06
2.26691e-06
2.26495e-06
2.2599e-06
2.25982e-06
2.25982e-06
2.25982e-06
2.25983e-06
2.25991e-06
2.26928e-06
2.27029e-06
2.2685e-06
2.26505e-06
2.25986e-06
2.25982e-06
2.25982e-06
2.25982e-06
2.25982e-06
2.25987e-06
2.26994e-06
2.26915e-06
2.26839e-06
2.26463e-06
2.25986e-06
2.25982e-06
2.25982e-06
2.25982e-06
2.25982e-06
2.25987e-06
2.26979e-06
2.26604e-06
2.26531e-06
2.25992e-06
2.25983e-06
2.25982e-06
2.25982e-06
2.25983e-06
2.25992e-06
2.26984e-06
2.26992e-06
2.2694e-06
2.26672e-06
2.25991e-06
2.25987e-06
2.25987e-06
2.25991e-06
2.27069e-06
2.26819e-06
2.26999e-06
2.26906e-06
2.26691e-06
2.26929e-06
2.26994e-06
2.2698e-06
2.26985e-06
2.26824e-06
2.27036e-06
2.27032e-06
2.26914e-06
2.26605e-06
2.26993e-06
2.27001e-06
2.24392e-06
2.24386e-06
2.24351e-06
2.24024e-06
2.24035e-06
2.23986e-06
2.24061e-06
2.24473e-06
2.24439e-06
2.24352e-06
2.23769e-06
2.23508e-06
2.23508e-06
2.23508e-06
2.23508e-06
2.24186e-06
2.24224e-06
2.24024e-06
2.23508e-06
2.23506e-06
2.23506e-06
2.23506e-06
2.23506e-06
2.23508e-06
2.24463e-06
2.24565e-06
2.24397e-06
2.24031e-06
2.23507e-06
2.23506e-06
2.23506e-06
2.23506e-06
2.23506e-06
2.23507e-06
2.2454e-06
2.2446e-06
2.2439e-06
2.23989e-06
2.23507e-06
2.23506e-06
2.23507e-06
2.23507e-06
2.23506e-06
2.23508e-06
2.24529e-06
2.24154e-06
2.24059e-06
2.23509e-06
2.23507e-06
2.23507e-06
2.23507e-06
2.23507e-06
2.23509e-06
2.24525e-06
2.24535e-06
2.24472e-06
2.24187e-06
2.23509e-06
2.23508e-06
2.23508e-06
2.23509e-06
2.24614e-06
2.24358e-06
2.24536e-06
2.24438e-06
2.24224e-06
2.24464e-06
2.24541e-06
2.24529e-06
2.24526e-06
2.24361e-06
2.24568e-06
2.24572e-06
2.24458e-06
2.24154e-06
2.24535e-06
2.24536e-06
2.21923e-06
2.21915e-06
2.21878e-06
2.21549e-06
2.2156e-06
2.21508e-06
2.21587e-06
2.21999e-06
2.21964e-06
2.21879e-06
2.21291e-06
2.21031e-06
2.2103e-06
2.2103e-06
2.21031e-06
2.21708e-06
2.2175e-06
2.2155e-06
2.21031e-06
2.2103e-06
2.2103e-06
2.2103e-06
2.2103e-06
2.21031e-06
2.2199e-06
2.22091e-06
2.21928e-06
2.21556e-06
2.21031e-06
2.2103e-06
2.2103e-06
2.2103e-06
2.2103e-06
2.2103e-06
2.2207e-06
2.21989e-06
2.21913e-06
2.21511e-06
2.21031e-06
2.21031e-06
2.2103e-06
2.2103e-06
2.2103e-06
2.2103e-06
2.22059e-06
2.21685e-06
2.21586e-06
2.21031e-06
2.21031e-06
2.2103e-06
2.2103e-06
2.2103e-06
2.21031e-06
2.22054e-06
2.22064e-06
2.21999e-06
2.21709e-06
2.21031e-06
2.2103e-06
2.2103e-06
2.2103e-06
2.22145e-06
2.21887e-06
2.22062e-06
2.21965e-06
2.21751e-06
2.21991e-06
2.22071e-06
2.2206e-06
2.22054e-06
2.21889e-06
2.22094e-06
2.22098e-06
2.21988e-06
2.21685e-06
2.22065e-06
2.22062e-06
2.19448e-06
2.19442e-06
2.19402e-06
2.19074e-06
2.19085e-06
2.19034e-06
2.19112e-06
2.19524e-06
2.19489e-06
2.19402e-06
2.1881e-06
2.18554e-06
2.18554e-06
2.18554e-06
2.18554e-06
2.19232e-06
2.19275e-06
2.19073e-06
2.18554e-06
2.18554e-06
2.18554e-06
2.18554e-06
2.18554e-06
2.18554e-06
2.19516e-06
2.19617e-06
2.19452e-06
2.19083e-06
2.18554e-06
2.18554e-06
2.18554e-06
2.18554e-06
2.18554e-06
2.18554e-06
2.19596e-06
2.19514e-06
2.19444e-06
2.19034e-06
2.18554e-06
2.18554e-06
2.18554e-06
2.18554e-06
2.18554e-06
2.18554e-06
2.19585e-06
2.1921e-06
2.19111e-06
2.18554e-06
2.18554e-06
2.18554e-06
2.18554e-06
2.18554e-06
2.18554e-06
2.19579e-06
2.19589e-06
2.19526e-06
2.19232e-06
2.18554e-06
2.18554e-06
2.18554e-06
2.18554e-06
2.1967e-06
2.19411e-06
2.19587e-06
2.1949e-06
2.19276e-06
2.19516e-06
2.19597e-06
2.19586e-06
2.1958e-06
2.19414e-06
2.19619e-06
2.19624e-06
2.19514e-06
2.19212e-06
2.19589e-06
2.19586e-06
2.16973e-06
2.16966e-06
2.16926e-06
2.16598e-06
2.16609e-06
2.16556e-06
2.16636e-06
2.17048e-06
2.17013e-06
2.16925e-06
2.16334e-06
2.16078e-06
2.16078e-06
2.16078e-06
2.16078e-06
2.16755e-06
2.168e-06
2.16595e-06
2.16078e-06
2.16078e-06
2.16078e-06
2.16078e-06
2.16078e-06
2.16078e-06
2.17039e-06
2.17142e-06
2.16966e-06
2.16611e-06
2.16078e-06
2.16078e-06
2.16078e-06
2.16078e-06
2.16078e-06
2.16078e-06
2.17121e-06
2.17039e-06
2.16958e-06
2.16561e-06
2.16078e-06
2.16078e-06
2.16078e-06
2.16078e-06
2.16078e-06
2.16078e-06
2.1711e-06
2.16735e-06
2.16634e-06
2.16078e-06
2.16078e-06
2.16078e-06
2.16078e-06
2.16078e-06
2.16078e-06
2.17104e-06
2.17114e-06
2.17051e-06
2.16756e-06
2.16078e-06
2.16078e-06
2.16078e-06
2.16078e-06
2.17195e-06
2.16937e-06
2.17111e-06
2.17014e-06
2.16799e-06
2.1704e-06
2.17121e-06
2.1711e-06
2.17104e-06
2.16938e-06
2.17144e-06
2.17148e-06
2.17038e-06
2.16735e-06
2.17115e-06
2.17111e-06
2.14497e-06
2.1449e-06
2.1445e-06
2.14122e-06
2.14133e-06
2.1408e-06
2.1416e-06
2.14572e-06
2.14537e-06
2.14449e-06
2.13858e-06
2.13602e-06
2.13602e-06
2.13602e-06
2.13602e-06
2.1428e-06
2.14324e-06
2.14122e-06
2.13602e-06
2.13602e-06
2.13602e-06
2.13602e-06
2.13602e-06
2.13602e-06
2.14563e-06
2.14665e-06
2.14491e-06
2.14134e-06
2.13602e-06
2.13602e-06
2.13602e-06
2.13602e-06
2.13602e-06
2.13602e-06
2.14645e-06
2.14563e-06
2.1448e-06
2.14083e-06
2.13602e-06
2.13602e-06
2.13602e-06
2.13602e-06
2.13602e-06
2.13602e-06
2.14634e-06
2.1426e-06
2.14157e-06
2.13602e-06
2.13602e-06
2.13602e-06
2.13602e-06
2.13602e-06
2.13602e-06
2.14628e-06
2.14638e-06
2.14572e-06
2.14279e-06
2.13602e-06
2.13602e-06
2.13602e-06
2.13602e-06
2.1472e-06
2.14461e-06
2.14636e-06
2.14537e-06
2.14323e-06
2.14564e-06
2.14645e-06
2.14635e-06
2.14628e-06
2.14462e-06
2.14667e-06
2.14672e-06
2.14562e-06
2.1426e-06
2.14638e-06
2.14634e-06
2.12021e-06
2.12015e-06
2.11974e-06
2.11646e-06
2.11657e-06
2.11604e-06
2.11684e-06
2.12096e-06
2.12061e-06
2.11973e-06
2.11383e-06
2.11126e-06
2.11126e-06
2.11126e-06
2.11126e-06
2.11803e-06
2.11848e-06
2.11644e-06
2.11126e-06
2.11126e-06
2.11126e-06
2.11126e-06
2.11126e-06
2.11126e-06
2.12087e-06
2.12189e-06
2.12012e-06
2.11656e-06
2.11126e-06
2.11126e-06
2.11126e-06
2.11126e-06
2.11126e-06
2.11126e-06
2.12169e-06
2.12087e-06
2.1201e-06
2.11608e-06
2.11126e-06
2.11126e-06
2.11126e-06
2.11126e-06
2.11126e-06
2.11126e-06
2.12158e-06
2.11784e-06
2.11682e-06
2.11126e-06
2.11126e-06
2.11126e-06
2.11126e-06
2.11126e-06
2.11126e-06
2.12152e-06
2.12162e-06
2.12096e-06
2.11804e-06
2.11126e-06
2.11126e-06
2.11126e-06
2.11126e-06
2.12244e-06
2.11985e-06
2.1216e-06
2.12061e-06
2.11847e-06
2.12088e-06
2.12168e-06
2.12158e-06
2.12152e-06
2.11987e-06
2.12192e-06
2.12195e-06
2.12086e-06
2.11783e-06
2.12162e-06
2.12159e-06
2.09545e-06
2.09537e-06
2.09499e-06
2.0917e-06
2.09181e-06
2.09128e-06
2.09207e-06
2.0962e-06
2.09585e-06
2.09499e-06
2.08906e-06
2.0865e-06
2.0865e-06
2.0865e-06
2.0865e-06
2.09327e-06
2.09372e-06
2.09169e-06
2.08649e-06
2.0865e-06
2.0865e-06
2.0865e-06
2.0865e-06
2.0865e-06
2.09611e-06
2.09714e-06
2.09544e-06
2.09181e-06
2.0865e-06
2.0865e-06
2.0865e-06
2.0865e-06
2.0865e-06
2.0865e-06
2.09693e-06
2.09611e-06
2.09538e-06
2.09128e-06
2.0865e-06
2.0865e-06
2.0865e-06
2.0865e-06
2.0865e-06
2.0865e-06
2.09682e-06
2.09308e-06
2.09207e-06
2.0865e-06
2.0865e-06
2.0865e-06
2.0865e-06
2.0865e-06
2.0865e-06
2.09675e-06
2.09686e-06
2.0962e-06
2.09328e-06
2.08649e-06
2.0865e-06
2.0865e-06
2.0865e-06
2.09767e-06
2.09509e-06
2.09683e-06
2.09585e-06
2.09371e-06
2.09612e-06
2.09693e-06
2.09682e-06
2.09676e-06
2.0951e-06
2.09715e-06
2.09719e-06
2.09609e-06
2.09307e-06
2.09687e-06
2.09683e-06
2.07068e-06
2.07062e-06
2.07022e-06
2.06693e-06
2.06704e-06
2.06652e-06
2.06731e-06
2.07144e-06
2.07109e-06
2.07022e-06
2.06431e-06
2.06173e-06
2.06173e-06
2.06173e-06
2.06173e-06
2.06851e-06
2.06895e-06
2.06694e-06
2.06173e-06
2.06173e-06
2.06173e-06
2.06173e-06
2.06173e-06
2.06173e-06
2.07135e-06
2.07237e-06
2.0707e-06
2.06702e-06
2.06173e-06
2.06173e-06
2.06173e-06
2.06173e-06
2.06173e-06
2.06173e-06
2.07216e-06
2.07135e-06
2.07061e-06
2.06656e-06
2.06174e-06
2.06173e-06
2.06173e-06
2.06173e-06
2.06173e-06
2.06173e-06
2.07205e-06
2.06832e-06
2.06729e-06
2.06173e-06
2.06173e-06
2.06173e-06
2.06173e-06
2.06173e-06
2.06173e-06
2.07199e-06
2.07209e-06
2.07143e-06
2.06851e-06
2.06173e-06
2.06173e-06
2.06174e-06
2.06174e-06
2.07292e-06
2.07033e-06
2.07207e-06
2.07108e-06
2.06895e-06
2.07135e-06
2.07216e-06
2.07206e-06
2.072e-06
2.07034e-06
2.07239e-06
2.07243e-06
2.07133e-06
2.06831e-06
2.0721e-06
2.07206e-06
2.04592e-06
2.04585e-06
2.04545e-06
2.04218e-06
2.04228e-06
2.04176e-06
2.04255e-06
2.04668e-06
2.04632e-06
2.04546e-06
2.03955e-06
2.03697e-06
2.03697e-06
2.03697e-06
2.03697e-06
2.04374e-06
2.04419e-06
2.04217e-06
2.03697e-06
2.03697e-06
2.03697e-06
2.03697e-06
2.03697e-06
2.03697e-06
2.04659e-06
2.0476e-06
2.04603e-06
2.04223e-06
2.03697e-06
2.03697e-06
2.03697e-06
2.03697e-06
2.03697e-06
2.03697e-06
2.0474e-06
2.04658e-06
2.0458e-06
2.0418e-06
2.03697e-06
2.03697e-06
2.03697e-06
2.03697e-06
2.03697e-06
2.03697e-06
2.04729e-06
2.04355e-06
2.04254e-06
2.03697e-06
2.03697e-06
2.03697e-06
2.03697e-06
2.03697e-06
2.03697e-06
2.04723e-06
2.04733e-06
2.04667e-06
2.04375e-06
2.03697e-06
2.03697e-06
2.03697e-06
2.03697e-06
2.04815e-06
2.04556e-06
2.04731e-06
2.04632e-06
2.04419e-06
2.0466e-06
2.04741e-06
2.0473e-06
2.04724e-06
2.04558e-06
2.04763e-06
2.04767e-06
2.04657e-06
2.04355e-06
2.04734e-06
2.0473e-06
2.02116e-06
2.02109e-06
2.02069e-06
2.01741e-06
2.01752e-06
2.01699e-06
2.01779e-06
2.02191e-06
2.02156e-06
2.0207e-06
2.01478e-06
2.01221e-06
2.01221e-06
2.01221e-06
2.01221e-06
2.01899e-06
2.01943e-06
2.01742e-06
2.01221e-06
2.01221e-06
2.01221e-06
2.01221e-06
2.01221e-06
2.01221e-06
2.02182e-06
2.02284e-06
2.02122e-06
2.01748e-06
2.01221e-06
2.01221e-06
2.01221e-06
2.01221e-06
2.01221e-06
2.01221e-06
2.02263e-06
2.02182e-06
2.02115e-06
2.01702e-06
2.01221e-06
2.01221e-06
2.01221e-06
2.01221e-06
2.01221e-06
2.01221e-06
2.02253e-06
2.01879e-06
2.01776e-06
2.01221e-06
2.01221e-06
2.01221e-06
2.01221e-06
2.01221e-06
2.01221e-06
2.02247e-06
2.02257e-06
2.02191e-06
2.01897e-06
2.01221e-06
2.01221e-06
2.01221e-06
2.0122e-06
2.02339e-06
2.0208e-06
2.02255e-06
2.02156e-06
2.01942e-06
2.02183e-06
2.02265e-06
2.02254e-06
2.02247e-06
2.02081e-06
2.02287e-06
2.02291e-06
2.02181e-06
2.01879e-06
2.02257e-06
2.02254e-06
1.9964e-06
1.99634e-06
1.99592e-06
1.99265e-06
1.99275e-06
1.99223e-06
1.99303e-06
1.99715e-06
1.9968e-06
1.99592e-06
1.99001e-06
1.98744e-06
1.98744e-06
1.98745e-06
1.98745e-06
1.99422e-06
1.99467e-06
1.99263e-06
1.98745e-06
1.98744e-06
1.98745e-06
1.98745e-06
1.98745e-06
1.98745e-06
1.99706e-06
1.99808e-06
1.99639e-06
1.99274e-06
1.98745e-06
1.98744e-06
1.98745e-06
1.98745e-06
1.98745e-06
1.98745e-06
1.99787e-06
1.99706e-06
1.99628e-06
1.99223e-06
1.98745e-06
1.98745e-06
1.98745e-06
1.98745e-06
1.98745e-06
1.98745e-06
1.99777e-06
1.99403e-06
1.99302e-06
1.98745e-06
1.98744e-06
1.98745e-06
1.98745e-06
1.98745e-06
1.98745e-06
1.99771e-06
1.99781e-06
1.99718e-06
1.99422e-06
1.98744e-06
1.98744e-06
1.98745e-06
1.98745e-06
1.99862e-06
1.99604e-06
1.99778e-06
1.99681e-06
1.99466e-06
1.99707e-06
1.99788e-06
1.99777e-06
1.99771e-06
1.99605e-06
1.99811e-06
1.99813e-06
1.99705e-06
1.99402e-06
1.9978e-06
1.99779e-06
1.97163e-06
1.97156e-06
1.97116e-06
1.96788e-06
1.96799e-06
1.96746e-06
1.96826e-06
1.97239e-06
1.97204e-06
1.97116e-06
1.96525e-06
1.96268e-06
1.96268e-06
1.96268e-06
1.96268e-06
1.96946e-06
1.9699e-06
1.96787e-06
1.96268e-06
1.96268e-06
1.96268e-06
1.96268e-06
1.96268e-06
1.96268e-06
1.9723e-06
1.97332e-06
1.97161e-06
1.96797e-06
1.96268e-06
1.96268e-06
1.96268e-06
1.96268e-06
1.96268e-06
1.96268e-06
1.97311e-06
1.97229e-06
1.97158e-06
1.96747e-06
1.96268e-06
1.96268e-06
1.96268e-06
1.96268e-06
1.96268e-06
1.96268e-06
1.973e-06
1.96926e-06
1.96827e-06
1.96268e-06
1.96268e-06
1.96268e-06
1.96268e-06
1.96268e-06
1.96268e-06
1.97294e-06
1.97304e-06
1.97238e-06
1.96946e-06
1.96268e-06
1.96268e-06
1.96269e-06
1.96269e-06
1.97386e-06
1.97127e-06
1.97302e-06
1.97204e-06
1.9699e-06
1.9723e-06
1.9731e-06
1.97302e-06
1.97294e-06
1.97129e-06
1.97333e-06
1.97337e-06
1.97228e-06
1.96924e-06
1.97304e-06
1.97301e-06
1.94687e-06
1.9468e-06
1.9464e-06
1.94312e-06
1.94324e-06
1.9427e-06
1.9435e-06
1.94762e-06
1.94727e-06
1.94639e-06
1.94048e-06
1.93792e-06
1.93792e-06
1.93792e-06
1.93792e-06
1.9447e-06
1.94514e-06
1.94311e-06
1.93792e-06
1.93792e-06
1.93792e-06
1.93792e-06
1.93792e-06
1.93792e-06
1.94754e-06
1.94855e-06
1.94686e-06
1.94323e-06
1.93792e-06
1.93792e-06
1.93792e-06
1.93792e-06
1.93792e-06
1.93792e-06
1.94835e-06
1.94753e-06
1.94681e-06
1.9427e-06
1.93792e-06
1.93792e-06
1.93792e-06
1.93792e-06
1.93792e-06
1.93792e-06
1.94824e-06
1.9445e-06
1.9435e-06
1.93792e-06
1.93792e-06
1.93792e-06
1.93792e-06
1.93792e-06
1.93792e-06
1.94818e-06
1.94828e-06
1.94763e-06
1.94469e-06
1.93792e-06
1.93792e-06
1.93792e-06
1.93792e-06
1.9491e-06
1.94652e-06
1.94826e-06
1.94728e-06
1.94514e-06
1.94754e-06
1.94833e-06
1.94824e-06
1.94817e-06
1.94653e-06
1.94858e-06
1.94859e-06
1.94758e-06
1.94444e-06
1.94826e-06
1.94826e-06
1.92211e-06
1.92205e-06
1.92164e-06
1.91836e-06
1.91846e-06
1.91794e-06
1.91874e-06
1.92286e-06
1.92251e-06
1.92163e-06
1.91572e-06
1.91316e-06
1.91316e-06
1.91316e-06
1.91316e-06
1.91993e-06
1.92038e-06
1.91835e-06
1.91316e-06
1.91316e-06
1.91316e-06
1.91316e-06
1.91316e-06
1.91316e-06
1.92277e-06
1.92379e-06
1.9221e-06
1.91849e-06
1.91316e-06
1.91316e-06
1.91316e-06
1.91316e-06
1.91316e-06
1.91316e-06
1.92358e-06
1.92277e-06
1.922e-06
1.91795e-06
1.91316e-06
1.91316e-06
1.91316e-06
1.91316e-06
1.91316e-06
1.91316e-06
1.92348e-06
1.91974e-06
1.91873e-06
1.91316e-06
1.91316e-06
1.91316e-06
1.91316e-06
1.91316e-06
1.91316e-06
1.92342e-06
1.92352e-06
1.92286e-06
1.91994e-06
1.91316e-06
1.91316e-06
1.91316e-06
1.91316e-06
1.92434e-06
1.92175e-06
1.9235e-06
1.92251e-06
1.92038e-06
1.92278e-06
1.92358e-06
1.9235e-06
1.92342e-06
1.92177e-06
1.92381e-06
1.92386e-06
1.92282e-06
1.91972e-06
1.9235e-06
1.92347e-06
1.89735e-06
1.89728e-06
1.89688e-06
1.8936e-06
1.89371e-06
1.89318e-06
1.89397e-06
1.8981e-06
1.89775e-06
1.89687e-06
1.89096e-06
1.8884e-06
1.8884e-06
1.88839e-06
1.88839e-06
1.89517e-06
1.89561e-06
1.89359e-06
1.8884e-06
1.8884e-06
1.8884e-06
1.8884e-06
1.88839e-06
1.88839e-06
1.89801e-06
1.89903e-06
1.89733e-06
1.89371e-06
1.8884e-06
1.8884e-06
1.8884e-06
1.8884e-06
1.88839e-06
1.88839e-06
1.89882e-06
1.898e-06
1.89725e-06
1.89317e-06
1.88839e-06
1.88839e-06
1.8884e-06
1.8884e-06
1.8884e-06
1.8884e-06
1.89871e-06
1.89497e-06
1.89397e-06
1.8884e-06
1.88839e-06
1.8884e-06
1.88839e-06
1.88839e-06
1.8884e-06
1.89866e-06
1.89876e-06
1.89812e-06
1.89517e-06
1.8884e-06
1.8884e-06
1.88839e-06
1.88839e-06
1.89958e-06
1.89699e-06
1.89873e-06
1.89776e-06
1.89561e-06
1.898e-06
1.89882e-06
1.89876e-06
1.89866e-06
1.89701e-06
1.89906e-06
1.89904e-06
1.89793e-06
1.89502e-06
1.89877e-06
1.89876e-06
1.87258e-06
1.87251e-06
1.87212e-06
1.86884e-06
1.86896e-06
1.86842e-06
1.8692e-06
1.87333e-06
1.87299e-06
1.87211e-06
1.8662e-06
1.86363e-06
1.86363e-06
1.86363e-06
1.86363e-06
1.87041e-06
1.87085e-06
1.86882e-06
1.86363e-06
1.86363e-06
1.86363e-06
1.86363e-06
1.86363e-06
1.86363e-06
1.87325e-06
1.87427e-06
1.87257e-06
1.86893e-06
1.86363e-06
1.86363e-06
1.86363e-06
1.86363e-06
1.86363e-06
1.86363e-06
1.87406e-06
1.87324e-06
1.87249e-06
1.86841e-06
1.86363e-06
1.86363e-06
1.86363e-06
1.86363e-06
1.86363e-06
1.86363e-06
1.87395e-06
1.87021e-06
1.86922e-06
1.86363e-06
1.86363e-06
1.86363e-06
1.86363e-06
1.86363e-06
1.86363e-06
1.87389e-06
1.87399e-06
1.87337e-06
1.87041e-06
1.86363e-06
1.86364e-06
1.86363e-06
1.86363e-06
1.87482e-06
1.87222e-06
1.87397e-06
1.873e-06
1.87085e-06
1.87325e-06
1.87406e-06
1.874e-06
1.8739e-06
1.87225e-06
1.87429e-06
1.87426e-06
1.87317e-06
1.8703e-06
1.87398e-06
1.87402e-06
1.84783e-06
1.84774e-06
1.84735e-06
1.84407e-06
1.84419e-06
1.84366e-06
1.84444e-06
1.84857e-06
1.84822e-06
1.84734e-06
1.84143e-06
1.83887e-06
1.83887e-06
1.83887e-06
1.83887e-06
1.84564e-06
1.84609e-06
1.84406e-06
1.83887e-06
1.83887e-06
1.83887e-06
1.83887e-06
1.83887e-06
1.83887e-06
1.84849e-06
1.84951e-06
1.84783e-06
1.84418e-06
1.83887e-06
1.83887e-06
1.83887e-06
1.83887e-06
1.83887e-06
1.83887e-06
1.8493e-06
1.84848e-06
1.84776e-06
1.84366e-06
1.83887e-06
1.83887e-06
1.83887e-06
1.83887e-06
1.83887e-06
1.83887e-06
1.84919e-06
1.84545e-06
1.84446e-06
1.83887e-06
1.83887e-06
1.83887e-06
1.83887e-06
1.83887e-06
1.83887e-06
1.84913e-06
1.84923e-06
1.84858e-06
1.84565e-06
1.83887e-06
1.83887e-06
1.83887e-06
1.83887e-06
1.85005e-06
1.84746e-06
1.8492e-06
1.84823e-06
1.84609e-06
1.84849e-06
1.84929e-06
1.84921e-06
1.84912e-06
1.84748e-06
1.84952e-06
1.84955e-06
1.84853e-06
1.84539e-06
1.84918e-06
1.84923e-06
1.82306e-06
1.82298e-06
1.82259e-06
1.81931e-06
1.81943e-06
1.81889e-06
1.81968e-06
1.82381e-06
1.82346e-06
1.82258e-06
1.81668e-06
1.81411e-06
1.81411e-06
1.81411e-06
1.81411e-06
1.82088e-06
1.82133e-06
1.8193e-06
1.81411e-06
1.81411e-06
1.81411e-06
1.81411e-06
1.81411e-06
1.81411e-06
1.82373e-06
1.82474e-06
1.82302e-06
1.81941e-06
1.81411e-06
1.81411e-06
1.81411e-06
1.81411e-06
1.81411e-06
1.81411e-06
1.82454e-06
1.82372e-06
1.82299e-06
1.8189e-06
1.81411e-06
1.81411e-06
1.81411e-06
1.81411e-06
1.81411e-06
1.81411e-06
1.82443e-06
1.82069e-06
1.81969e-06
1.81411e-06
1.81411e-06
1.81411e-06
1.81411e-06
1.81411e-06
1.81411e-06
1.82437e-06
1.82447e-06
1.82382e-06
1.82089e-06
1.81411e-06
1.81411e-06
1.81411e-06
1.81411e-06
1.82529e-06
1.8227e-06
1.82445e-06
1.82347e-06
1.82133e-06
1.82373e-06
1.82454e-06
1.82445e-06
1.82437e-06
1.82272e-06
1.82476e-06
1.82482e-06
1.82378e-06
1.82068e-06
1.82445e-06
1.82442e-06
1.79827e-06
1.7982e-06
1.79783e-06
1.79455e-06
1.79466e-06
1.79413e-06
1.79491e-06
1.79908e-06
1.79871e-06
1.79782e-06
1.79191e-06
1.78935e-06
1.78935e-06
1.78935e-06
1.78935e-06
1.79613e-06
1.79657e-06
1.79454e-06
1.78935e-06
1.78935e-06
1.78935e-06
1.78935e-06
1.78935e-06
1.78935e-06
1.79896e-06
1.79998e-06
1.7983e-06
1.79466e-06
1.78935e-06
1.78935e-06
1.78935e-06
1.78935e-06
1.78935e-06
1.78935e-06
1.79978e-06
1.79896e-06
1.79821e-06
1.79412e-06
1.78935e-06
1.78935e-06
1.78935e-06
1.78935e-06
1.78935e-06
1.78935e-06
1.79967e-06
1.79592e-06
1.79493e-06
1.78935e-06
1.78935e-06
1.78935e-06
1.78935e-06
1.78935e-06
1.78935e-06
1.79961e-06
1.79971e-06
1.79905e-06
1.79612e-06
1.78935e-06
1.78935e-06
1.78935e-06
1.78935e-06
1.80053e-06
1.79794e-06
1.79969e-06
1.7987e-06
1.79655e-06
1.79895e-06
1.79977e-06
1.79971e-06
1.79962e-06
1.79796e-06
1.80001e-06
1.79997e-06
1.79892e-06
1.79596e-06
1.79971e-06
1.79973e-06
1.7735e-06
1.77344e-06
1.77306e-06
1.76978e-06
1.76988e-06
1.76936e-06
1.77016e-06
1.77432e-06
1.77395e-06
1.77305e-06
1.76714e-06
1.76458e-06
1.76458e-06
1.76458e-06
1.76459e-06
1.77137e-06
1.77181e-06
1.76977e-06
1.76458e-06
1.76458e-06
1.76459e-06
1.76459e-06
1.76459e-06
1.76459e-06
1.7742e-06
1.77522e-06
1.77355e-06
1.76988e-06
1.76458e-06
1.76458e-06
1.76459e-06
1.76459e-06
1.76459e-06
1.76459e-06
1.77502e-06
1.7742e-06
1.77348e-06
1.76937e-06
1.76458e-06
1.76458e-06
1.76459e-06
1.76459e-06
1.76459e-06
1.76459e-06
1.77491e-06
1.77117e-06
1.77017e-06
1.76459e-06
1.76459e-06
1.76459e-06
1.76459e-06
1.76459e-06
1.76459e-06
1.77484e-06
1.77495e-06
1.77429e-06
1.77135e-06
1.76459e-06
1.76459e-06
1.76458e-06
1.76458e-06
1.77577e-06
1.77318e-06
1.77492e-06
1.77394e-06
1.77179e-06
1.77419e-06
1.77501e-06
1.77494e-06
1.77485e-06
1.7732e-06
1.77524e-06
1.7752e-06
1.77411e-06
1.77123e-06
1.77494e-06
1.77496e-06
1.74878e-06
1.74873e-06
1.7483e-06
1.74502e-06
1.74511e-06
1.7446e-06
1.74541e-06
1.74954e-06
1.74918e-06
1.74829e-06
1.74238e-06
1.73982e-06
1.73982e-06
1.73982e-06
1.73983e-06
1.7466e-06
1.74705e-06
1.74501e-06
1.73982e-06
1.73982e-06
1.73982e-06
1.73982e-06
1.73983e-06
1.73983e-06
1.74944e-06
1.75046e-06
1.74876e-06
1.74514e-06
1.73982e-06
1.73982e-06
1.73982e-06
1.73982e-06
1.73982e-06
1.73982e-06
1.75025e-06
1.74944e-06
1.74871e-06
1.7446e-06
1.73982e-06
1.73982e-06
1.73982e-06
1.73982e-06
1.73982e-06
1.73982e-06
1.75015e-06
1.7464e-06
1.7454e-06
1.73982e-06
1.73982e-06
1.73982e-06
1.73982e-06
1.73982e-06
1.73982e-06
1.75008e-06
1.75019e-06
1.74953e-06
1.74658e-06
1.73982e-06
1.73982e-06
1.73982e-06
1.73982e-06
1.751e-06
1.74841e-06
1.75016e-06
1.74918e-06
1.74703e-06
1.74944e-06
1.75026e-06
1.75017e-06
1.75009e-06
1.74843e-06
1.75048e-06
1.75051e-06
1.74937e-06
1.74645e-06
1.75019e-06
1.75018e-06
1.724e-06
1.72395e-06
1.72354e-06
1.72026e-06
1.72036e-06
1.71984e-06
1.72065e-06
1.72477e-06
1.72442e-06
1.72353e-06
1.71762e-06
1.71506e-06
1.71506e-06
1.71506e-06
1.71506e-06
1.72184e-06
1.72228e-06
1.72025e-06
1.71506e-06
1.71506e-06
1.71506e-06
1.71506e-06
1.71506e-06
1.71506e-06
1.72468e-06
1.7257e-06
1.72402e-06
1.72039e-06
1.71506e-06
1.71506e-06
1.71506e-06
1.71506e-06
1.71506e-06
1.71506e-06
1.72549e-06
1.72467e-06
1.72395e-06
1.71985e-06
1.71506e-06
1.71506e-06
1.71506e-06
1.71506e-06
1.71506e-06
1.71506e-06
1.72538e-06
1.72164e-06
1.72063e-06
1.71506e-06
1.71506e-06
1.71506e-06
1.71506e-06
1.71506e-06
1.71506e-06
1.72532e-06
1.72542e-06
1.72476e-06
1.72182e-06
1.71506e-06
1.71506e-06
1.71506e-06
1.71506e-06
1.72624e-06
1.72365e-06
1.7254e-06
1.72441e-06
1.72227e-06
1.72468e-06
1.7255e-06
1.72539e-06
1.72532e-06
1.72367e-06
1.72571e-06
1.72576e-06
1.72466e-06
1.72164e-06
1.72542e-06
1.72539e-06
1.69925e-06
1.69918e-06
1.69878e-06
1.6955e-06
1.69561e-06
1.69508e-06
1.69588e-06
1.7e-06
1.69965e-06
1.69877e-06
1.69285e-06
1.6903e-06
1.6903e-06
1.6903e-06
1.6903e-06
1.69707e-06
1.69752e-06
1.69548e-06
1.6903e-06
1.6903e-06
1.6903e-06
1.6903e-06
1.6903e-06
1.6903e-06
1.69992e-06
1.70094e-06
1.69922e-06
1.69561e-06
1.6903e-06
1.6903e-06
1.6903e-06
1.6903e-06
1.6903e-06
1.6903e-06
1.70073e-06
1.69991e-06
1.6991e-06
1.69511e-06
1.6903e-06
1.6903e-06
1.6903e-06
1.6903e-06
1.6903e-06
1.6903e-06
1.70062e-06
1.69688e-06
1.69586e-06
1.6903e-06
1.6903e-06
1.6903e-06
1.6903e-06
1.6903e-06
1.6903e-06
1.70055e-06
1.70066e-06
1.70002e-06
1.69707e-06
1.6903e-06
1.6903e-06
1.6903e-06
1.6903e-06
1.70148e-06
1.69889e-06
1.70064e-06
1.69966e-06
1.69751e-06
1.69992e-06
1.70073e-06
1.70062e-06
1.70056e-06
1.69891e-06
1.70096e-06
1.701e-06
1.69989e-06
1.69687e-06
1.70066e-06
1.70062e-06
1.67449e-06
1.67442e-06
1.67402e-06
1.67074e-06
1.67085e-06
1.67032e-06
1.67111e-06
1.67524e-06
1.67489e-06
1.67401e-06
1.6681e-06
1.66554e-06
1.66554e-06
1.66554e-06
1.66554e-06
1.67231e-06
1.67276e-06
1.67074e-06
1.66554e-06
1.66554e-06
1.66554e-06
1.66554e-06
1.66554e-06
1.66554e-06
1.67515e-06
1.67617e-06
1.6744e-06
1.67086e-06
1.66554e-06
1.66554e-06
1.66554e-06
1.66554e-06
1.66554e-06
1.66554e-06
1.67596e-06
1.67515e-06
1.67432e-06
1.67036e-06
1.66554e-06
1.66554e-06
1.66554e-06
1.66554e-06
1.66554e-06
1.66554e-06
1.67586e-06
1.67212e-06
1.67108e-06
1.66554e-06
1.66554e-06
1.66554e-06
1.66554e-06
1.66554e-06
1.66554e-06
1.67579e-06
1.6759e-06
1.67525e-06
1.6723e-06
1.66554e-06
1.66554e-06
1.66554e-06
1.66554e-06
1.67672e-06
1.67413e-06
1.67588e-06
1.67489e-06
1.67274e-06
1.67516e-06
1.67598e-06
1.67587e-06
1.6758e-06
1.67414e-06
1.6762e-06
1.67623e-06
1.67514e-06
1.67212e-06
1.67589e-06
1.67587e-06
1.64973e-06
1.64966e-06
1.64926e-06
1.64598e-06
1.64609e-06
1.64556e-06
1.64635e-06
1.65048e-06
1.65013e-06
1.64925e-06
1.64334e-06
1.64078e-06
1.64078e-06
1.64078e-06
1.64078e-06
1.64755e-06
1.64799e-06
1.64596e-06
1.64078e-06
1.64078e-06
1.64078e-06
1.64078e-06
1.64078e-06
1.64078e-06
1.65039e-06
1.65141e-06
1.64964e-06
1.64608e-06
1.64077e-06
1.64078e-06
1.64078e-06
1.64078e-06
1.64078e-06
1.64078e-06
1.6512e-06
1.65039e-06
1.64963e-06
1.64558e-06
1.64077e-06
1.64078e-06
1.64078e-06
1.64078e-06
1.64078e-06
1.64078e-06
1.65109e-06
1.64735e-06
1.64633e-06
1.64077e-06
1.64077e-06
1.64078e-06
1.64078e-06
1.64078e-06
1.64078e-06
1.65103e-06
1.65114e-06
1.6505e-06
1.64756e-06
1.64077e-06
1.64077e-06
1.64078e-06
1.64078e-06
1.65195e-06
1.64937e-06
1.65111e-06
1.65014e-06
1.64799e-06
1.6504e-06
1.65121e-06
1.6511e-06
1.65104e-06
1.64938e-06
1.65143e-06
1.65148e-06
1.65038e-06
1.64736e-06
1.65114e-06
1.6511e-06
1.62497e-06
1.6249e-06
1.62451e-06
1.62121e-06
1.62133e-06
1.6208e-06
1.62159e-06
1.62572e-06
1.62537e-06
1.62451e-06
1.61859e-06
1.61602e-06
1.61602e-06
1.61601e-06
1.61601e-06
1.62279e-06
1.62324e-06
1.62123e-06
1.61602e-06
1.61602e-06
1.61601e-06
1.61601e-06
1.61601e-06
1.61602e-06
1.62563e-06
1.62665e-06
1.62496e-06
1.62139e-06
1.61601e-06
1.61601e-06
1.61601e-06
1.61601e-06
1.61601e-06
1.61601e-06
1.62644e-06
1.62563e-06
1.62487e-06
1.62079e-06
1.61601e-06
1.61601e-06
1.61601e-06
1.61601e-06
1.61601e-06
1.61601e-06
1.62633e-06
1.62259e-06
1.62157e-06
1.61601e-06
1.61601e-06
1.61601e-06
1.61601e-06
1.61601e-06
1.61601e-06
1.62627e-06
1.62637e-06
1.6257e-06
1.62278e-06
1.61601e-06
1.61601e-06
1.61601e-06
1.61601e-06
1.62719e-06
1.62461e-06
1.62635e-06
1.62536e-06
1.62322e-06
1.62563e-06
1.62644e-06
1.62634e-06
1.62628e-06
1.62462e-06
1.62667e-06
1.6267e-06
1.62561e-06
1.62259e-06
1.62638e-06
1.62635e-06
1.6002e-06
1.60013e-06
1.59974e-06
1.59645e-06
1.59656e-06
1.59604e-06
1.59683e-06
1.60096e-06
1.60061e-06
1.59974e-06
1.59382e-06
1.59125e-06
1.59125e-06
1.59125e-06
1.59125e-06
1.59803e-06
1.59847e-06
1.59644e-06
1.59125e-06
1.59125e-06
1.59125e-06
1.59125e-06
1.59125e-06
1.59125e-06
1.60087e-06
1.60189e-06
1.60019e-06
1.59656e-06
1.59125e-06
1.59125e-06
1.59125e-06
1.59125e-06
1.59125e-06
1.59125e-06
1.60168e-06
1.60086e-06
1.60011e-06
1.59604e-06
1.59125e-06
1.59125e-06
1.59125e-06
1.59125e-06
1.59125e-06
1.59125e-06
1.60157e-06
1.59783e-06
1.59682e-06
1.59125e-06
1.59125e-06
1.59125e-06
1.59125e-06
1.59125e-06
1.59125e-06
1.60151e-06
1.60161e-06
1.60095e-06
1.59802e-06
1.59125e-06
1.59125e-06
1.59125e-06
1.59125e-06
1.60243e-06
1.59984e-06
1.60159e-06
1.6006e-06
1.59846e-06
1.60087e-06
1.60168e-06
1.60158e-06