/*--------------------------------*- C++ -*----------------------------------*\
| =========                 |                                                 |
| \\      /  F ield         | OpenFOAM: The Open Source CFD Toolbox           |
|  \\    /   O peration     | Version:  v2012                                 |
|   \\  /    A nd           | Website:  www.openfoam.com                      |
|    \\/     M anipulation  |                                                 |
\*---------------------------------------------------------------------------*/
FoamFile
{
    version     2.0;
    format      ascii;
    class       volScalarField;
    location    "0.11";
    object      p;
}
// * * * * * * * * * * * * * * * * * * * * * * * * * * * * * * * * * * * * * //

dimensions      [0 2 -2 0 0 0 0];


internalField   nonuniform List<scalar> 
244288
(
2.20449e-06
2.20585e-06
2.2059e-06
2.20543e-06
2.20507e-06
2.20552e-06
2.20594e-06
2.20585e-06
2.20601e-06
2.20605e-06
2.20577e-06
2.20558e-06
2.20582e-06
2.20608e-06
2.20598e-06
2.2059e-06
2.20605e-06
2.20584e-06
2.20547e-06
2.20531e-06
2.20551e-06
2.20589e-06
2.20606e-06
2.20589e-06
2.20544e-06
2.20577e-06
2.20547e-06
2.20505e-06
2.20488e-06
2.2051e-06
2.20553e-06
2.20578e-06
2.20535e-06
2.20449e-06
2.20507e-06
2.20558e-06
2.20531e-06
2.20488e-06
2.20472e-06
2.20493e-06
2.20537e-06
2.20558e-06
2.20495e-06
2.20552e-06
2.20582e-06
2.20551e-06
2.2051e-06
2.20493e-06
2.20514e-06
2.20557e-06
2.20583e-06
2.20545e-06
2.20593e-06
2.20608e-06
2.20589e-06
2.20553e-06
2.20537e-06
2.20557e-06
2.20594e-06
2.20608e-06
2.20594e-06
2.20598e-06
2.20606e-06
2.20578e-06
2.20558e-06
2.20583e-06
2.20608e-06
2.20595e-06
2.20589e-06
2.20535e-06
2.20496e-06
2.20544e-06
2.20593e-06
2.17086e-06
2.1694e-06
2.17036e-06
2.16852e-06
2.16825e-06
2.16812e-06
2.16826e-06
2.17092e-06
2.17084e-06
2.17034e-06
2.16773e-06
2.16483e-06
2.16471e-06
2.16471e-06
2.16483e-06
2.16931e-06
2.16877e-06
2.16851e-06
2.16483e-06
2.16465e-06
2.16465e-06
2.16465e-06
2.16466e-06
2.16483e-06
2.16962e-06
2.17146e-06
2.17085e-06
2.16825e-06
2.16471e-06
2.16465e-06
2.16469e-06
2.16469e-06
2.16465e-06
2.16472e-06
2.16926e-06
2.17022e-06
2.16941e-06
2.16812e-06
2.16471e-06
2.16465e-06
2.16469e-06
2.16469e-06
2.16465e-06
2.16472e-06
2.16918e-06
2.16784e-06
2.16826e-06
2.16483e-06
2.16465e-06
2.16465e-06
2.16465e-06
2.16466e-06
2.16484e-06
2.16939e-06
2.16931e-06
2.17092e-06
2.1693e-06
2.16483e-06
2.16472e-06
2.16472e-06
2.16484e-06
2.17003e-06
2.16944e-06
2.17154e-06
2.17083e-06
2.16877e-06
2.16962e-06
2.16926e-06
2.16917e-06
2.16939e-06
2.16944e-06
2.172e-06
2.17146e-06
2.17022e-06
2.16784e-06
2.1693e-06
2.17155e-06
2.14996e-06
2.14973e-06
2.14975e-06
2.14707e-06
2.14707e-06
2.14699e-06
2.14713e-06
2.15049e-06
2.15039e-06
2.14974e-06
2.14586e-06
2.14273e-06
2.14239e-06
2.14238e-06
2.1427e-06
2.14836e-06
2.1481e-06
2.14707e-06
2.14273e-06
2.1417e-06
2.14168e-06
2.14167e-06
2.14168e-06
2.14274e-06
2.14964e-06
2.15124e-06
2.14989e-06
2.14708e-06
2.14239e-06
2.14168e-06
2.14172e-06
2.14171e-06
2.14167e-06
2.14237e-06
2.14969e-06
2.15036e-06
2.14968e-06
2.14698e-06
2.14238e-06
2.14168e-06
2.14172e-06
2.14171e-06
2.14167e-06
2.14239e-06
2.14954e-06
2.14738e-06
2.14712e-06
2.14269e-06
2.14168e-06
2.14167e-06
2.14167e-06
2.14168e-06
2.14271e-06
2.14979e-06
2.15108e-06
2.15048e-06
2.14836e-06
2.14275e-06
2.14238e-06
2.14238e-06
2.14274e-06
2.15023e-06
2.14894e-06
2.15099e-06
2.15039e-06
2.1481e-06
2.14964e-06
2.14968e-06
2.14954e-06
2.1498e-06
2.14896e-06
2.15155e-06
2.15123e-06
2.15031e-06
2.14742e-06
2.15109e-06
2.151e-06
2.12761e-06
2.12744e-06
2.12738e-06
2.12445e-06
2.1245e-06
2.12426e-06
2.1247e-06
2.12811e-06
2.12807e-06
2.1274e-06
2.12275e-06
2.12e-06
2.11986e-06
2.11986e-06
2.12003e-06
2.12557e-06
2.12591e-06
2.12445e-06
2.12e-06
2.11963e-06
2.1196e-06
2.1196e-06
2.11963e-06
2.12001e-06
2.12736e-06
2.12893e-06
2.12758e-06
2.12451e-06
2.11986e-06
2.1196e-06
2.11959e-06
2.11959e-06
2.1196e-06
2.11987e-06
2.12775e-06
2.12809e-06
2.12741e-06
2.12426e-06
2.11985e-06
2.1196e-06
2.11959e-06
2.11959e-06
2.1196e-06
2.11986e-06
2.12765e-06
2.1253e-06
2.12469e-06
2.12002e-06
2.11963e-06
2.1196e-06
2.1196e-06
2.11964e-06
2.12003e-06
2.12771e-06
2.1288e-06
2.1281e-06
2.12556e-06
2.12001e-06
2.11987e-06
2.11987e-06
2.12001e-06
2.1282e-06
2.12669e-06
2.12877e-06
2.12807e-06
2.12591e-06
2.12736e-06
2.12776e-06
2.12766e-06
2.12772e-06
2.1267e-06
2.12909e-06
2.12893e-06
2.12808e-06
2.12532e-06
2.1288e-06
2.12876e-06
2.10494e-06
2.10479e-06
2.10451e-06
2.10151e-06
2.10154e-06
2.10118e-06
2.10178e-06
2.1052e-06
2.10516e-06
2.10451e-06
2.09952e-06
2.09698e-06
2.09695e-06
2.09694e-06
2.09699e-06
2.10241e-06
2.10307e-06
2.10151e-06
2.09698e-06
2.09689e-06
2.09689e-06
2.09689e-06
2.09689e-06
2.09698e-06
2.10458e-06
2.10618e-06
2.10495e-06
2.10153e-06
2.09694e-06
2.09689e-06
2.09688e-06
2.09688e-06
2.09689e-06
2.09695e-06
2.10521e-06
2.10553e-06
2.1048e-06
2.10118e-06
2.09694e-06
2.09689e-06
2.09689e-06
2.09689e-06
2.09689e-06
2.09695e-06
2.10517e-06
2.1028e-06
2.10179e-06
2.097e-06
2.0969e-06
2.09689e-06
2.09689e-06
2.0969e-06
2.09699e-06
2.10505e-06
2.10619e-06
2.10521e-06
2.10241e-06
2.09699e-06
2.09695e-06
2.09695e-06
2.09698e-06
2.10561e-06
2.10395e-06
2.10597e-06
2.10517e-06
2.10309e-06
2.10459e-06
2.10522e-06
2.10518e-06
2.10505e-06
2.10395e-06
2.10621e-06
2.10618e-06
2.10552e-06
2.10281e-06
2.1062e-06
2.10597e-06
2.08211e-06
2.08199e-06
2.08161e-06
2.07861e-06
2.07863e-06
2.07822e-06
2.07887e-06
2.08232e-06
2.08227e-06
2.08161e-06
2.07655e-06
2.07405e-06
2.07404e-06
2.07404e-06
2.07405e-06
2.0794e-06
2.08019e-06
2.0786e-06
2.07404e-06
2.07402e-06
2.07402e-06
2.07402e-06
2.07403e-06
2.07405e-06
2.0817e-06
2.08332e-06
2.08215e-06
2.07859e-06
2.07404e-06
2.07402e-06
2.07402e-06
2.07402e-06
2.07402e-06
2.07404e-06
2.0824e-06
2.08271e-06
2.08201e-06
2.07825e-06
2.07404e-06
2.07402e-06
2.07402e-06
2.07402e-06
2.07402e-06
2.07404e-06
2.08238e-06
2.08001e-06
2.07887e-06
2.07405e-06
2.07402e-06
2.07402e-06
2.07402e-06
2.07403e-06
2.07405e-06
2.0822e-06
2.08337e-06
2.08232e-06
2.07941e-06
2.07405e-06
2.07404e-06
2.07404e-06
2.07405e-06
2.08282e-06
2.0811e-06
2.0831e-06
2.08228e-06
2.08019e-06
2.08171e-06
2.0824e-06
2.08238e-06
2.08221e-06
2.0811e-06
2.08332e-06
2.08331e-06
2.08271e-06
2.08001e-06
2.08337e-06
2.0831e-06
2.05922e-06
2.0591e-06
2.05872e-06
2.0557e-06
2.05572e-06
2.05529e-06
2.05597e-06
2.05941e-06
2.05936e-06
2.05871e-06
2.05363e-06
2.05113e-06
2.05113e-06
2.05113e-06
2.05114e-06
2.05648e-06
2.05729e-06
2.0557e-06
2.05114e-06
2.05113e-06
2.05113e-06
2.05113e-06
2.05113e-06
2.05113e-06
2.0588e-06
2.06042e-06
2.0593e-06
2.05568e-06
2.05113e-06
2.05113e-06
2.05113e-06
2.05113e-06
2.05113e-06
2.05113e-06
2.05952e-06
2.05983e-06
2.05912e-06
2.05533e-06
2.05113e-06
2.05113e-06
2.05113e-06
2.05113e-06
2.05113e-06
2.05113e-06
2.0595e-06
2.05714e-06
2.05597e-06
2.05114e-06
2.05113e-06
2.05113e-06
2.05113e-06
2.05113e-06
2.05113e-06
2.05931e-06
2.06049e-06
2.05941e-06
2.05648e-06
2.05113e-06
2.05113e-06
2.05113e-06
2.05113e-06
2.05996e-06
2.05822e-06
2.0602e-06
2.05936e-06
2.05729e-06
2.0588e-06
2.05952e-06
2.05951e-06
2.05931e-06
2.05821e-06
2.06042e-06
2.06041e-06
2.05983e-06
2.05714e-06
2.06049e-06
2.0602e-06
2.03633e-06
2.0362e-06
2.03582e-06
2.03279e-06
2.03282e-06
2.03239e-06
2.03306e-06
2.03651e-06
2.03646e-06
2.0358e-06
2.0307e-06
2.02823e-06
2.02823e-06
2.02823e-06
2.02823e-06
2.03357e-06
2.03439e-06
2.03278e-06
2.02822e-06
2.02822e-06
2.02822e-06
2.02822e-06
2.02822e-06
2.02823e-06
2.0359e-06
2.03751e-06
2.03635e-06
2.03278e-06
2.02822e-06
2.02822e-06
2.02823e-06
2.02823e-06
2.02822e-06
2.02823e-06
2.03662e-06
2.03693e-06
2.03622e-06
2.03235e-06
2.02823e-06
2.02823e-06
2.02823e-06
2.02823e-06
2.02823e-06
2.02823e-06
2.0366e-06
2.03423e-06
2.03307e-06
2.02823e-06
2.02823e-06
2.02823e-06
2.02823e-06
2.02822e-06
2.02823e-06
2.03641e-06
2.03759e-06
2.03651e-06
2.03356e-06
2.02823e-06
2.02823e-06
2.02822e-06
2.02823e-06
2.03705e-06
2.03531e-06
2.03729e-06
2.03646e-06
2.03439e-06
2.03591e-06
2.03663e-06
2.03661e-06
2.03641e-06
2.03531e-06
2.03752e-06
2.03751e-06
2.03694e-06
2.03424e-06
2.03758e-06
2.0373e-06
2.01342e-06
2.01329e-06
2.01291e-06
2.00988e-06
2.00991e-06
2.00947e-06
2.01015e-06
2.0136e-06
2.01355e-06
2.01289e-06
2.00779e-06
2.00532e-06
2.00532e-06
2.00532e-06
2.00532e-06
2.01066e-06
2.01148e-06
2.00987e-06
2.00532e-06
2.00532e-06
2.00532e-06
2.00532e-06
2.00532e-06
2.00532e-06
2.013e-06
2.01461e-06
2.01337e-06
2.00991e-06
2.00532e-06
2.00532e-06
2.00532e-06
2.00532e-06
2.00532e-06
2.00532e-06
2.01372e-06
2.01402e-06
2.01324e-06
2.00951e-06
2.00532e-06
2.00532e-06
2.00532e-06
2.00532e-06
2.00532e-06
2.00532e-06
2.0137e-06
2.01133e-06
2.01015e-06
2.00532e-06
2.00532e-06
2.00532e-06
2.00532e-06
2.00532e-06
2.00532e-06
2.01351e-06
2.01468e-06
2.0136e-06
2.01066e-06
2.00532e-06
2.00532e-06
2.00532e-06
2.00532e-06
2.01415e-06
2.01241e-06
2.01439e-06
2.01356e-06
2.01148e-06
2.01299e-06
2.01372e-06
2.01371e-06
2.01351e-06
2.0124e-06
2.01461e-06
2.0146e-06
2.01403e-06
2.01134e-06
2.01468e-06
2.01439e-06
1.99051e-06
1.99038e-06
1.99e-06
1.98697e-06
1.987e-06
1.98656e-06
1.98724e-06
1.99069e-06
1.99064e-06
1.98998e-06
1.98489e-06
1.98241e-06
1.98241e-06
1.98241e-06
1.98241e-06
1.98775e-06
1.98857e-06
1.98697e-06
1.98241e-06
1.98241e-06
1.98241e-06
1.98241e-06
1.98241e-06
1.98241e-06
1.99009e-06
1.9917e-06
1.99045e-06
1.98698e-06
1.98241e-06
1.98241e-06
1.98241e-06
1.98241e-06
1.98241e-06
1.98241e-06
1.99081e-06
1.99111e-06
1.99031e-06
1.9866e-06
1.98241e-06
1.98241e-06
1.98241e-06
1.98241e-06
1.98241e-06
1.98241e-06
1.9908e-06
1.98843e-06
1.98723e-06
1.98241e-06
1.98241e-06
1.98241e-06
1.98241e-06
1.98241e-06
1.98241e-06
1.9906e-06
1.99178e-06
1.9907e-06
1.98775e-06
1.98241e-06
1.98241e-06
1.98241e-06
1.98241e-06
1.99125e-06
1.98951e-06
1.99148e-06
1.99065e-06
1.98857e-06
1.99009e-06
1.99081e-06
1.9908e-06
1.9906e-06
1.9895e-06
1.9917e-06
1.99169e-06
1.99112e-06
1.98843e-06
1.99177e-06
1.99148e-06
1.9676e-06
1.96748e-06
1.96709e-06
1.96407e-06
1.96409e-06
1.96365e-06
1.96433e-06
1.96779e-06
1.96774e-06
1.96707e-06
1.96198e-06
1.9595e-06
1.9595e-06
1.9595e-06
1.9595e-06
1.96484e-06
1.96567e-06
1.96406e-06
1.9595e-06
1.9595e-06
1.9595e-06
1.9595e-06
1.9595e-06
1.9595e-06
1.96718e-06
1.96879e-06
1.96756e-06
1.96408e-06
1.9595e-06
1.9595e-06
1.9595e-06
1.9595e-06
1.9595e-06
1.9595e-06
1.9679e-06
1.96821e-06
1.96744e-06
1.96369e-06
1.9595e-06
1.9595e-06
1.9595e-06
1.9595e-06
1.9595e-06
1.9595e-06
1.96789e-06
1.96552e-06
1.96433e-06
1.9595e-06
1.9595e-06
1.9595e-06
1.9595e-06
1.9595e-06
1.9595e-06
1.96769e-06
1.96887e-06
1.96779e-06
1.96485e-06
1.9595e-06
1.9595e-06
1.9595e-06
1.9595e-06
1.96834e-06
1.9666e-06
1.96857e-06
1.96774e-06
1.96566e-06
1.96718e-06
1.9679e-06
1.96789e-06
1.96769e-06
1.96659e-06
1.9688e-06
1.96879e-06
1.96821e-06
1.96552e-06
1.96886e-06
1.96858e-06
1.94469e-06
1.94457e-06
1.94419e-06
1.94116e-06
1.94118e-06
1.94075e-06
1.94143e-06
1.94488e-06
1.94483e-06
1.94417e-06
1.93907e-06
1.93659e-06
1.93659e-06
1.93659e-06
1.93659e-06
1.94193e-06
1.94276e-06
1.94116e-06
1.9366e-06
1.93659e-06
1.93659e-06
1.93659e-06
1.93659e-06
1.93659e-06
1.94427e-06
1.94589e-06
1.9447e-06
1.94118e-06
1.93659e-06
1.93659e-06
1.93659e-06
1.93659e-06
1.93659e-06
1.93659e-06
1.94499e-06
1.9453e-06
1.94457e-06
1.94075e-06
1.93659e-06
1.93659e-06
1.93659e-06
1.93659e-06
1.93659e-06
1.93659e-06
1.94498e-06
1.94261e-06
1.94143e-06
1.93659e-06
1.93659e-06
1.93659e-06
1.93659e-06
1.93659e-06
1.93659e-06
1.94478e-06
1.94596e-06
1.94487e-06
1.94194e-06
1.93659e-06
1.93659e-06
1.93659e-06
1.93659e-06
1.94543e-06
1.94369e-06
1.94567e-06
1.94483e-06
1.94275e-06
1.94427e-06
1.945e-06
1.94498e-06
1.94478e-06
1.94368e-06
1.94589e-06
1.94588e-06
1.94531e-06
1.94261e-06
1.94596e-06
1.94566e-06
1.92179e-06
1.92167e-06
1.92128e-06
1.91826e-06
1.91828e-06
1.91784e-06
1.91852e-06
1.92197e-06
1.92192e-06
1.92127e-06
1.91617e-06
1.91369e-06
1.91369e-06
1.91369e-06
1.91369e-06
1.91902e-06
1.91985e-06
1.91825e-06
1.91369e-06
1.91369e-06
1.91369e-06
1.91369e-06
1.91369e-06
1.91369e-06
1.92136e-06
1.92298e-06
1.92181e-06
1.91825e-06
1.91369e-06
1.91369e-06
1.91369e-06
1.91369e-06
1.91369e-06
1.91369e-06
1.92209e-06
1.92239e-06
1.92166e-06
1.91787e-06
1.91369e-06
1.91369e-06
1.91369e-06
1.91369e-06
1.91369e-06
1.91369e-06
1.92207e-06
1.91971e-06
1.91851e-06
1.91369e-06
1.91369e-06
1.91369e-06
1.91369e-06
1.91369e-06
1.91369e-06
1.92188e-06
1.92305e-06
1.92196e-06
1.91902e-06
1.91369e-06
1.91369e-06
1.91369e-06
1.91369e-06
1.92252e-06
1.92078e-06
1.92276e-06
1.92192e-06
1.91985e-06
1.92136e-06
1.92209e-06
1.92208e-06
1.92187e-06
1.92077e-06
1.92298e-06
1.92297e-06
1.9224e-06
1.9197e-06
1.92305e-06
1.92275e-06
1.89888e-06
1.89876e-06
1.89837e-06
1.89535e-06
1.89537e-06
1.89493e-06
1.89561e-06
1.89907e-06
1.89902e-06
1.89836e-06
1.89326e-06
1.89078e-06
1.89078e-06
1.89078e-06
1.89078e-06
1.89612e-06
1.89694e-06
1.89535e-06
1.89078e-06
1.89078e-06
1.89078e-06
1.89078e-06
1.89078e-06
1.89078e-06
1.89846e-06
1.90007e-06
1.89897e-06
1.89532e-06
1.89078e-06
1.89078e-06
1.89078e-06
1.89078e-06
1.89078e-06
1.89078e-06
1.89918e-06
1.89948e-06
1.89875e-06
1.89499e-06
1.89078e-06
1.89078e-06
1.89078e-06
1.89078e-06
1.89078e-06
1.89078e-06
1.89917e-06
1.8968e-06
1.89561e-06
1.89078e-06
1.89078e-06
1.89078e-06
1.89078e-06
1.89078e-06
1.89078e-06
1.89897e-06
1.90015e-06
1.89905e-06
1.89612e-06
1.89078e-06
1.89078e-06
1.89078e-06
1.89078e-06
1.89962e-06
1.89788e-06
1.89985e-06
1.89901e-06
1.89694e-06
1.89846e-06
1.89918e-06
1.89917e-06
1.89897e-06
1.89786e-06
1.90007e-06
1.90006e-06
1.89949e-06
1.8968e-06
1.90015e-06
1.89985e-06
1.87597e-06
1.87585e-06
1.87546e-06
1.87244e-06
1.87246e-06
1.87202e-06
1.8727e-06
1.87616e-06
1.87611e-06
1.87545e-06
1.87035e-06
1.86787e-06
1.86787e-06
1.86787e-06
1.86787e-06
1.87321e-06
1.87404e-06
1.87244e-06
1.86787e-06
1.86787e-06
1.86787e-06
1.86787e-06
1.86787e-06
1.86787e-06
1.87555e-06
1.87717e-06
1.87603e-06
1.87242e-06
1.86787e-06
1.86787e-06
1.86787e-06
1.86787e-06
1.86787e-06
1.86787e-06
1.87627e-06
1.87658e-06
1.8759e-06
1.87206e-06
1.86787e-06
1.86787e-06
1.86787e-06
1.86787e-06
1.86787e-06
1.86787e-06
1.87626e-06
1.87389e-06
1.87271e-06
1.86787e-06
1.86787e-06
1.86787e-06
1.86787e-06
1.86787e-06
1.86787e-06
1.87606e-06
1.87724e-06
1.87615e-06
1.8732e-06
1.86787e-06
1.86787e-06
1.86787e-06
1.86787e-06
1.87671e-06
1.87497e-06
1.87694e-06
1.8761e-06
1.87403e-06
1.87555e-06
1.87627e-06
1.87626e-06
1.87606e-06
1.87496e-06
1.87717e-06
1.87715e-06
1.87658e-06
1.87389e-06
1.87724e-06
1.87695e-06
1.85307e-06
1.85295e-06
1.85255e-06
1.84953e-06
1.84955e-06
1.84912e-06
1.8498e-06
1.85325e-06
1.8532e-06
1.85254e-06
1.84744e-06
1.84496e-06
1.84496e-06
1.84496e-06
1.84496e-06
1.8503e-06
1.85113e-06
1.84952e-06
1.84497e-06
1.84496e-06
1.84496e-06
1.84496e-06
1.84496e-06
1.84496e-06
1.85264e-06
1.85426e-06
1.85306e-06
1.84954e-06
1.84497e-06
1.84496e-06
1.84496e-06
1.84496e-06
1.84496e-06
1.84496e-06
1.85336e-06
1.85367e-06
1.85292e-06
1.84912e-06
1.84497e-06
1.84496e-06
1.84496e-06
1.84496e-06
1.84496e-06
1.84496e-06
1.85335e-06
1.85098e-06
1.8498e-06
1.84496e-06
1.84496e-06
1.84496e-06
1.84497e-06
1.84497e-06
1.84496e-06
1.85315e-06
1.85433e-06
1.85325e-06
1.8503e-06
1.84496e-06
1.84496e-06
1.84496e-06
1.84496e-06
1.8538e-06
1.85206e-06
1.85403e-06
1.8532e-06
1.85112e-06
1.85264e-06
1.85337e-06
1.85335e-06
1.85315e-06
1.85205e-06
1.85426e-06
1.85425e-06
1.85367e-06
1.85098e-06
1.85432e-06
1.85404e-06
1.83016e-06
1.83003e-06
1.82965e-06
1.82662e-06
1.82665e-06
1.82621e-06
1.82689e-06
1.83034e-06
1.83029e-06
1.82964e-06
1.82454e-06
1.82206e-06
1.82206e-06
1.82206e-06
1.82206e-06
1.8274e-06
1.82822e-06
1.82662e-06
1.82206e-06
1.82206e-06
1.82206e-06
1.82206e-06
1.82206e-06
1.82206e-06
1.82974e-06
1.83135e-06
1.83016e-06
1.82663e-06
1.82206e-06
1.82206e-06
1.82206e-06
1.82206e-06
1.82206e-06
1.82206e-06
1.83046e-06
1.83076e-06
1.83004e-06
1.82621e-06
1.82206e-06
1.82206e-06
1.82206e-06
1.82206e-06
1.82206e-06
1.82206e-06
1.83044e-06
1.82808e-06
1.82689e-06
1.82206e-06
1.82206e-06
1.82206e-06
1.82206e-06
1.82206e-06
1.82206e-06
1.83025e-06
1.83142e-06
1.83034e-06
1.8274e-06
1.82206e-06
1.82206e-06
1.82206e-06
1.82206e-06
1.8309e-06
1.82915e-06
1.83113e-06
1.8303e-06
1.82822e-06
1.82974e-06
1.83046e-06
1.83044e-06
1.83025e-06
1.82914e-06
1.83135e-06
1.83134e-06
1.83077e-06
1.82806e-06
1.83143e-06
1.83112e-06
1.80725e-06
1.80712e-06
1.80674e-06
1.80372e-06
1.80374e-06
1.8033e-06
1.80398e-06
1.80744e-06
1.80739e-06
1.80672e-06
1.80163e-06
1.79915e-06
1.79915e-06
1.79915e-06
1.79915e-06
1.80449e-06
1.80532e-06
1.80371e-06
1.79915e-06
1.79915e-06
1.79915e-06
1.79915e-06
1.79915e-06
1.79915e-06
1.80683e-06
1.80844e-06
1.80726e-06
1.80374e-06
1.79915e-06
1.79915e-06
1.79915e-06
1.79915e-06
1.79915e-06
1.79915e-06
1.80755e-06
1.80786e-06
1.80714e-06
1.80331e-06
1.79915e-06
1.79915e-06
1.79915e-06
1.79915e-06
1.79915e-06
1.79915e-06
1.80754e-06
1.80517e-06
1.80399e-06
1.79915e-06
1.79915e-06
1.79915e-06
1.79915e-06
1.79915e-06
1.79915e-06
1.80734e-06
1.80852e-06
1.80744e-06
1.80449e-06
1.79915e-06
1.79915e-06
1.79915e-06
1.79915e-06
1.80799e-06
1.80625e-06
1.80822e-06
1.80739e-06
1.80531e-06
1.80683e-06
1.80755e-06
1.80753e-06
1.80733e-06
1.80624e-06
1.80845e-06
1.80845e-06
1.8079e-06
1.80512e-06
1.80849e-06
1.80823e-06
1.78435e-06
1.78423e-06
1.78384e-06
1.78081e-06
1.78083e-06
1.7804e-06
1.78108e-06
1.78453e-06
1.78448e-06
1.78382e-06
1.77872e-06
1.77625e-06
1.77625e-06
1.77625e-06
1.77625e-06
1.78158e-06
1.78241e-06
1.7808e-06
1.77625e-06
1.77625e-06
1.77625e-06
1.77625e-06
1.77625e-06
1.77625e-06
1.78392e-06
1.78554e-06
1.78433e-06
1.78084e-06
1.77625e-06
1.77625e-06
1.77625e-06
1.77625e-06
1.77625e-06
1.77625e-06
1.78465e-06
1.78495e-06
1.7842e-06
1.78041e-06
1.77625e-06
1.77625e-06
1.77625e-06
1.77625e-06
1.77625e-06
1.77624e-06
1.78463e-06
1.78226e-06
1.78108e-06
1.77625e-06
1.77625e-06
1.77625e-06
1.77625e-06
1.77625e-06
1.77625e-06
1.78444e-06
1.78561e-06
1.78453e-06
1.78159e-06
1.77625e-06
1.77625e-06
1.77625e-06
1.77625e-06
1.78508e-06
1.78334e-06
1.78532e-06
1.78448e-06
1.78241e-06
1.78393e-06
1.78465e-06
1.78465e-06
1.78442e-06
1.78333e-06
1.78553e-06
1.78554e-06
1.78501e-06
1.78225e-06
1.7856e-06
1.78529e-06
1.76144e-06
1.76132e-06
1.76093e-06
1.7579e-06
1.75793e-06
1.75749e-06
1.75817e-06
1.76162e-06
1.76157e-06
1.76091e-06
1.75582e-06
1.75334e-06
1.75334e-06
1.75334e-06
1.75334e-06
1.75868e-06
1.7595e-06
1.7579e-06
1.75334e-06
1.75334e-06
1.75334e-06
1.75334e-06
1.75334e-06
1.75334e-06
1.76102e-06
1.76263e-06
1.76144e-06
1.75793e-06
1.75334e-06
1.75334e-06
1.75334e-06
1.75334e-06
1.75334e-06
1.75334e-06
1.76174e-06
1.76204e-06
1.7613e-06
1.75749e-06
1.75334e-06
1.75334e-06
1.75334e-06
1.75334e-06
1.75334e-06
1.75334e-06
1.76172e-06
1.75935e-06
1.75817e-06
1.75334e-06
1.75334e-06
1.75334e-06
1.75334e-06
1.75334e-06
1.75334e-06
1.76153e-06
1.7627e-06
1.76162e-06
1.75868e-06
1.75334e-06
1.75334e-06
1.75334e-06
1.75334e-06
1.76218e-06
1.76043e-06
1.76241e-06
1.76157e-06
1.75949e-06
1.76101e-06
1.76173e-06
1.76175e-06
1.76153e-06
1.76042e-06
1.76263e-06
1.76262e-06
1.76201e-06
1.75939e-06
1.76272e-06
1.76241e-06
1.73853e-06
1.7384e-06
1.73802e-06
1.73499e-06
1.73502e-06
1.73459e-06
1.73526e-06
1.73872e-06
1.73867e-06
1.738e-06
1.73291e-06
1.73043e-06
1.73043e-06
1.73043e-06
1.73043e-06
1.73577e-06
1.73659e-06
1.73499e-06
1.73043e-06
1.73043e-06
1.73043e-06
1.73043e-06
1.73043e-06
1.73043e-06
1.73811e-06
1.73972e-06
1.73853e-06
1.73501e-06
1.73043e-06
1.73043e-06
1.73043e-06
1.73043e-06
1.73043e-06
1.73043e-06
1.73883e-06
1.73913e-06
1.7384e-06
1.73458e-06
1.73043e-06
1.73043e-06
1.73043e-06
1.73043e-06
1.73043e-06
1.73043e-06
1.73882e-06
1.73645e-06
1.73526e-06
1.73043e-06
1.73043e-06
1.73043e-06
1.73043e-06
1.73043e-06
1.73043e-06
1.73862e-06
1.7398e-06
1.73871e-06
1.73577e-06
1.73043e-06
1.73043e-06
1.73043e-06
1.73043e-06
1.73927e-06
1.73753e-06
1.7395e-06
1.73866e-06
1.73659e-06
1.7381e-06
1.73881e-06
1.73885e-06
1.73863e-06
1.73752e-06
1.73972e-06
1.73969e-06
1.73908e-06
1.7365e-06
1.73981e-06
1.7395e-06
1.71562e-06
1.71549e-06
1.71511e-06
1.71209e-06
1.71211e-06
1.71168e-06
1.71236e-06
1.71581e-06
1.71576e-06
1.7151e-06
1.71e-06
1.70752e-06
1.70752e-06
1.70752e-06
1.70752e-06
1.71286e-06
1.71369e-06
1.71208e-06
1.70752e-06
1.70752e-06
1.70752e-06
1.70752e-06
1.70752e-06
1.70752e-06
1.7152e-06
1.71681e-06
1.71562e-06
1.71211e-06
1.70752e-06
1.70752e-06
1.70752e-06
1.70752e-06
1.70752e-06
1.70752e-06
1.71592e-06
1.71623e-06
1.7155e-06
1.71168e-06
1.70752e-06
1.70752e-06
1.70752e-06
1.70752e-06
1.70752e-06
1.70752e-06
1.71591e-06
1.71354e-06
1.71236e-06
1.70752e-06
1.70752e-06
1.70752e-06
1.70752e-06
1.70752e-06
1.70752e-06
1.71571e-06
1.71689e-06
1.71581e-06
1.71286e-06
1.70752e-06
1.70752e-06
1.70752e-06
1.70752e-06
1.71636e-06
1.71462e-06
1.71659e-06
1.71576e-06
1.71368e-06
1.7152e-06
1.71592e-06
1.7159e-06
1.71569e-06
1.7146e-06
1.71681e-06
1.71682e-06
1.71627e-06
1.7135e-06
1.71687e-06
1.71657e-06
1.69271e-06
1.69259e-06
1.6922e-06
1.68918e-06
1.68921e-06
1.68877e-06
1.68945e-06
1.6929e-06
1.69285e-06
1.69219e-06
1.68709e-06
1.68462e-06
1.68462e-06
1.68462e-06
1.68461e-06
1.68995e-06
1.69078e-06
1.68918e-06
1.68461e-06
1.68461e-06
1.68461e-06
1.68461e-06
1.68461e-06
1.68461e-06
1.69229e-06
1.69391e-06
1.69272e-06
1.6892e-06
1.68461e-06
1.68461e-06
1.68461e-06
1.68461e-06
1.68461e-06
1.68461e-06
1.69301e-06
1.69332e-06
1.69259e-06
1.68877e-06
1.68462e-06
1.68462e-06
1.68462e-06
1.68461e-06
1.68461e-06
1.68461e-06
1.693e-06
1.69063e-06
1.68945e-06
1.68462e-06
1.68462e-06
1.68462e-06
1.68462e-06
1.68461e-06
1.68461e-06
1.6928e-06
1.69398e-06
1.6929e-06
1.68996e-06
1.68462e-06
1.68462e-06
1.68462e-06
1.68461e-06
1.69345e-06
1.69171e-06
1.69368e-06
1.69285e-06
1.69078e-06
1.6923e-06
1.69302e-06
1.69302e-06
1.69279e-06
1.6917e-06
1.6939e-06
1.69391e-06
1.69338e-06
1.69061e-06
1.69396e-06
1.69366e-06
1.66981e-06
1.66968e-06
1.6693e-06
1.66627e-06
1.6663e-06
1.66586e-06
1.66654e-06
1.66999e-06
1.66994e-06
1.66928e-06
1.66419e-06
1.66171e-06
1.66171e-06
1.66171e-06
1.66171e-06
1.66705e-06
1.66787e-06
1.66627e-06
1.66171e-06
1.66171e-06
1.66171e-06
1.66171e-06
1.66171e-06
1.66171e-06
1.66939e-06
1.671e-06
1.6698e-06
1.6663e-06
1.66171e-06
1.66171e-06
1.66171e-06
1.66171e-06
1.66171e-06
1.66171e-06
1.67011e-06
1.67041e-06
1.66968e-06
1.66586e-06
1.66171e-06
1.66171e-06
1.66171e-06
1.66171e-06
1.66171e-06
1.66171e-06
1.67009e-06
1.66772e-06
1.66654e-06
1.66171e-06
1.66171e-06
1.66171e-06
1.66171e-06
1.66171e-06
1.66171e-06
1.6699e-06
1.67107e-06
1.66999e-06
1.66704e-06
1.66171e-06
1.66171e-06
1.66171e-06
1.66171e-06
1.67054e-06
1.6688e-06
1.67078e-06
1.66994e-06
1.66786e-06
1.66938e-06
1.6701e-06
1.67011e-06
1.6699e-06
1.66879e-06
1.671e-06
1.67099e-06
1.67039e-06
1.66775e-06
1.67108e-06
1.67077e-06
1.6469e-06
1.64677e-06
1.64639e-06
1.64336e-06
1.64338e-06
1.64295e-06
1.64363e-06
1.64708e-06
1.64704e-06
1.64637e-06
1.64128e-06
1.6388e-06
1.6388e-06
1.6388e-06
1.6388e-06
1.64414e-06
1.64496e-06
1.64336e-06
1.6388e-06
1.6388e-06
1.6388e-06
1.6388e-06
1.6388e-06
1.6388e-06
1.64648e-06
1.64809e-06
1.6469e-06
1.64337e-06
1.6388e-06
1.6388e-06
1.6388e-06
1.6388e-06
1.6388e-06
1.6388e-06
1.6472e-06
1.64751e-06
1.64678e-06
1.64295e-06
1.6388e-06
1.6388e-06
1.6388e-06
1.6388e-06
1.6388e-06
1.6388e-06
1.64719e-06
1.64482e-06
1.64363e-06
1.6388e-06
1.6388e-06
1.6388e-06
1.6388e-06
1.6388e-06
1.6388e-06
1.64699e-06
1.64817e-06
1.64709e-06
1.64413e-06
1.6388e-06
1.6388e-06
1.6388e-06
1.6388e-06
1.64764e-06
1.64589e-06
1.64787e-06
1.64704e-06
1.64496e-06
1.64647e-06
1.64718e-06
1.64721e-06
1.647e-06
1.64589e-06
1.64809e-06
1.64806e-06
1.64744e-06
1.64487e-06
1.64818e-06
1.64787e-06
1.624e-06
1.62387e-06
1.62348e-06
1.62046e-06
1.62047e-06
1.62004e-06
1.62072e-06
1.62419e-06
1.62413e-06
1.62346e-06
1.61837e-06
1.61589e-06
1.61589e-06
1.61589e-06
1.61589e-06
1.62123e-06
1.62206e-06
1.62045e-06
1.61589e-06
1.61589e-06
1.61589e-06
1.61589e-06
1.61589e-06
1.61589e-06
1.62357e-06
1.62518e-06
1.62399e-06
1.62048e-06
1.61589e-06
1.61589e-06
1.61589e-06
1.61589e-06
1.61589e-06
1.61589e-06
1.62429e-06
1.6246e-06
1.62387e-06
1.62004e-06
1.61589e-06
1.61589e-06
1.61589e-06
1.61589e-06
1.61589e-06
1.61589e-06
1.62428e-06
1.62191e-06
1.62072e-06
1.61589e-06
1.61589e-06
1.61589e-06
1.61589e-06
1.61589e-06
1.61589e-06
1.62408e-06
1.62526e-06
1.62418e-06
1.62122e-06
1.61589e-06
1.61589e-06
1.61589e-06
1.61589e-06
1.62473e-06
1.62299e-06
1.62496e-06
1.62413e-06
1.62205e-06
1.62357e-06
1.62429e-06
1.6243e-06
1.62408e-06
1.62298e-06
1.62518e-06
1.62517e-06
1.62457e-06
1.62194e-06
1.62526e-06
1.62497e-06
1.60109e-06
1.60096e-06
1.60058e-06
1.59755e-06
1.59757e-06
1.59714e-06
1.59782e-06
1.60127e-06
1.60122e-06
1.60056e-06
1.59546e-06
1.59299e-06
1.59299e-06
1.59299e-06
1.59299e-06
1.59832e-06
1.59915e-06
1.59755e-06
1.59298e-06
1.59299e-06
1.59299e-06
1.59299e-06
1.59299e-06
1.59299e-06
1.60066e-06
1.60228e-06
1.60109e-06
1.59758e-06
1.59299e-06
1.59299e-06
1.59299e-06
1.59299e-06
1.59299e-06
1.59299e-06
1.60138e-06
1.60169e-06
1.60096e-06
1.59715e-06
1.59299e-06
1.59299e-06
1.59299e-06
1.59299e-06
1.59299e-06
1.59299e-06
1.60137e-06
1.599e-06
1.59782e-06
1.59299e-06
1.59299e-06
1.59299e-06
1.59299e-06
1.59298e-06
1.59298e-06
1.60118e-06
1.60235e-06
1.60127e-06
1.59832e-06
1.59299e-06
1.59299e-06
1.59298e-06
1.59299e-06
1.60182e-06
1.60008e-06
1.60206e-06
1.60122e-06
1.59914e-06
1.60066e-06
1.60139e-06
1.60138e-06
1.60117e-06
1.60007e-06
1.60228e-06
1.60227e-06
1.60169e-06
1.599e-06
1.60234e-06
1.60205e-06
1.57818e-06
1.57805e-06
1.57767e-06
1.57465e-06
1.57467e-06
1.57423e-06
1.57491e-06
1.57836e-06
1.57831e-06
1.57765e-06
1.57255e-06
1.57008e-06
1.57008e-06
1.57008e-06
1.57008e-06
1.57542e-06
1.57624e-06
1.57464e-06
1.57008e-06
1.57008e-06
1.57008e-06
1.57008e-06
1.57008e-06
1.57008e-06
1.57776e-06
1.57937e-06
1.57816e-06
1.57467e-06
1.57008e-06
1.57008e-06
1.57008e-06
1.57008e-06
1.57008e-06
1.57008e-06
1.57848e-06
1.57878e-06
1.57802e-06
1.57427e-06
1.57008e-06
1.57008e-06
1.57008e-06
1.57008e-06
1.57008e-06
1.57008e-06
1.57846e-06
1.5761e-06
1.57491e-06
1.57008e-06
1.57008e-06
1.57008e-06
1.57008e-06
1.57008e-06
1.57008e-06
1.57827e-06
1.57945e-06
1.57836e-06
1.57542e-06
1.57008e-06
1.57008e-06
1.57008e-06
1.57008e-06
1.57891e-06
1.57718e-06
1.57915e-06
1.57831e-06
1.57624e-06
1.57776e-06
1.57848e-06
1.57847e-06
1.57827e-06
1.57716e-06
1.57937e-06
1.57936e-06
1.57879e-06
1.57609e-06
1.57944e-06
1.57915e-06
1.55527e-06
1.55515e-06
1.55476e-06
1.55174e-06
1.55176e-06
1.55132e-06
1.55201e-06
1.55546e-06
1.55541e-06
1.55474e-06
1.54965e-06
1.54717e-06
1.54717e-06
1.54717e-06
1.54717e-06
1.55251e-06
1.55334e-06
1.55174e-06
1.54718e-06
1.54717e-06
1.54717e-06
1.54717e-06
1.54717e-06
1.54717e-06
1.55485e-06
1.55647e-06
1.55521e-06
1.55175e-06
1.54718e-06
1.54717e-06
1.54717e-06
1.54717e-06
1.54717e-06
1.54717e-06
1.55557e-06
1.55588e-06
1.55508e-06
1.55137e-06
1.54717e-06
1.54717e-06
1.54717e-06
1.54717e-06
1.54717e-06
1.54717e-06
1.55556e-06
1.55319e-06
1.55199e-06
1.54717e-06
1.54717e-06
1.54717e-06
1.54717e-06
1.54717e-06
1.54717e-06
1.55536e-06
1.55654e-06
1.55546e-06
1.55251e-06
1.54717e-06
1.54717e-06
1.54717e-06
1.54717e-06
1.55601e-06
1.55427e-06
1.55624e-06
1.55541e-06
1.55333e-06
1.55485e-06
1.55557e-06
1.55556e-06
1.55536e-06
1.55426e-06
1.55647e-06
1.55645e-06
1.55588e-06
1.55319e-06
1.55653e-06
1.55625e-06
1.53237e-06
1.53224e-06
1.53186e-06
1.52884e-06
1.52886e-06
1.52842e-06
1.5291e-06
1.53255e-06
1.5325e-06
1.53184e-06
1.52674e-06
1.52427e-06
1.52427e-06
1.52427e-06
1.52427e-06
1.5296e-06
1.53043e-06
1.52883e-06
1.52427e-06
1.52427e-06
1.52427e-06
1.52427e-06
1.52427e-06
1.52427e-06
1.53194e-06
1.53356e-06
1.53233e-06
1.52883e-06
1.52427e-06
1.52427e-06
1.52427e-06
1.52427e-06
1.52427e-06
1.52427e-06
1.53267e-06
1.53297e-06
1.53222e-06
1.52845e-06
1.52427e-06
1.52427e-06
1.52427e-06
1.52427e-06
1.52427e-06
1.52427e-06
1.53265e-06
1.53028e-06
1.52909e-06
1.52427e-06
1.52427e-06
1.52427e-06
1.52427e-06
1.52427e-06
1.52427e-06
1.53246e-06
1.53363e-06
1.53255e-06
1.52961e-06
1.52427e-06
1.52427e-06
1.52427e-06
1.52427e-06
1.5331e-06
1.53136e-06
1.53333e-06
1.5325e-06
1.53043e-06
1.53194e-06
1.53267e-06
1.53266e-06
1.53245e-06
1.53135e-06
1.53356e-06
1.53355e-06
1.53298e-06
1.53029e-06
1.53363e-06
1.53334e-06
1.50946e-06
1.50934e-06
1.50895e-06
1.50593e-06
1.50595e-06
1.50551e-06
1.50619e-06
1.50965e-06
1.5096e-06
1.50894e-06
1.50384e-06
1.50136e-06
1.50136e-06
1.50136e-06
1.50136e-06
1.5067e-06
1.50752e-06
1.50592e-06
1.50136e-06
1.50136e-06
1.50136e-06
1.50136e-06
1.50136e-06
1.50136e-06
1.50904e-06
1.51066e-06
1.50945e-06
1.50595e-06
1.50136e-06
1.50136e-06
1.50136e-06
1.50136e-06
1.50136e-06
1.50136e-06
1.50976e-06
1.51006e-06
1.50933e-06
1.50553e-06
1.50136e-06
1.50136e-06
1.50136e-06
1.50136e-06
1.50136e-06
1.50136e-06
1.50975e-06
1.50738e-06
1.50619e-06
1.50136e-06
1.50136e-06
1.50136e-06
1.50136e-06
1.50136e-06
1.50136e-06
1.50955e-06
1.51073e-06
1.50964e-06
1.5067e-06
1.50136e-06
1.50136e-06
1.50136e-06
1.50136e-06
1.5102e-06
1.50846e-06
1.51043e-06
1.5096e-06
1.50752e-06
1.50904e-06
1.50976e-06
1.50975e-06
1.50955e-06
1.50844e-06
1.51066e-06
1.51064e-06
1.51007e-06
1.50737e-06
1.51072e-06
1.51044e-06
1.48655e-06
1.48643e-06
1.48604e-06
1.48302e-06
1.48304e-06
1.4826e-06
1.48329e-06
1.48674e-06
1.48669e-06
1.48603e-06
1.48093e-06
1.47845e-06
1.47845e-06
1.47845e-06
1.47845e-06
1.48379e-06
1.48462e-06
1.48301e-06
1.47845e-06
1.47845e-06
1.47845e-06
1.47845e-06
1.47845e-06
1.47845e-06
1.48613e-06
1.48775e-06
1.48655e-06
1.48304e-06
1.47845e-06
1.47845e-06
1.47845e-06
1.47845e-06
1.47845e-06
1.47845e-06
1.48685e-06
1.48716e-06
1.48643e-06
1.48261e-06
1.47845e-06
1.47845e-06
1.47845e-06
1.47845e-06
1.47845e-06
1.47845e-06
1.48684e-06
1.48447e-06
1.48329e-06
1.47845e-06
1.47845e-06
1.47845e-06
1.47845e-06
1.47845e-06
1.47845e-06
1.48664e-06
1.48782e-06
1.48674e-06
1.48379e-06
1.47845e-06
1.47845e-06
1.47845e-06
1.47845e-06
1.48729e-06
1.48555e-06
1.48752e-06
1.48669e-06
1.48461e-06
1.48613e-06