/*--------------------------------*- C++ -*----------------------------------*\
| =========                 |                                                 |
| \\      /  F ield         | OpenFOAM: The Open Source CFD Toolbox           |
|  \\    /   O peration     | Version:  v2012                                 |
|   \\  /    A nd           | Website:  www.openfoam.com                      |
|    \\/     M anipulation  |                                                 |
\*---------------------------------------------------------------------------*/
FoamFile
{
    version     2.0;
    format      ascii;
    class       volScalarField;
    location    "18.5";
    object      p;
}
// * * * * * * * * * * * * * * * * * * * * * * * * * * * * * * * * * * * * * //

dimensions      [0 2 -2 0 0 0 0];


internalField   nonuniform List<scalar> 
244288
(
1.42197e-06
1.42203e-06
1.42201e-06
1.42193e-06
1.42189e-06
1.42194e-06
1.42201e-06
1.42203e-06
1.42206e-06
1.42185e-06
1.42161e-06
1.42152e-06
1.42163e-06
1.42188e-06
1.42207e-06
1.422e-06
1.42185e-06
1.42146e-06
1.42113e-06
1.42102e-06
1.42116e-06
1.42151e-06
1.42189e-06
1.422e-06
1.42193e-06
1.42161e-06
1.42113e-06
1.42076e-06
1.42064e-06
1.4208e-06
1.42119e-06
1.42167e-06
1.42195e-06
1.42196e-06
1.42188e-06
1.42152e-06
1.42102e-06
1.42064e-06
1.42052e-06
1.42068e-06
1.42108e-06
1.42158e-06
1.4219e-06
1.42194e-06
1.42163e-06
1.42116e-06
1.4208e-06
1.42068e-06
1.42083e-06
1.42122e-06
1.42169e-06
1.42195e-06
1.42201e-06
1.42188e-06
1.4215e-06
1.42119e-06
1.42108e-06
1.42122e-06
1.42155e-06
1.42192e-06
1.422e-06
1.42207e-06
1.42189e-06
1.42166e-06
1.42158e-06
1.42169e-06
1.42192e-06
1.42207e-06
1.422e-06
1.42194e-06
1.42191e-06
1.42195e-06
1.422e-06
1.40102e-06
1.40071e-06
1.40055e-06
1.39918e-06
1.39908e-06
1.39907e-06
1.39911e-06
1.40051e-06
1.40062e-06
1.40055e-06
1.3987e-06
1.39641e-06
1.39641e-06
1.39642e-06
1.39643e-06
1.39881e-06
1.39932e-06
1.39917e-06
1.39641e-06
1.39637e-06
1.39641e-06
1.39642e-06
1.39639e-06
1.39643e-06
1.39927e-06
1.40076e-06
1.40101e-06
1.39908e-06
1.39641e-06
1.39642e-06
1.39647e-06
1.39647e-06
1.39644e-06
1.39644e-06
1.39923e-06
1.40053e-06
1.4007e-06
1.39907e-06
1.39642e-06
1.39642e-06
1.39647e-06
1.39647e-06
1.39643e-06
1.39643e-06
1.39919e-06
1.39943e-06
1.39911e-06
1.39642e-06
1.39638e-06
1.39641e-06
1.39642e-06
1.39638e-06
1.39643e-06
1.39925e-06
1.40069e-06
1.4005e-06
1.3988e-06
1.39642e-06
1.39642e-06
1.39642e-06
1.39643e-06
1.39886e-06
1.39933e-06
1.40078e-06
1.40062e-06
1.39931e-06
1.39927e-06
1.39923e-06
1.39919e-06
1.39925e-06
1.39933e-06
1.4005e-06
1.40076e-06
1.40053e-06
1.39943e-06
1.40068e-06
1.40077e-06
1.38606e-06
1.38595e-06
1.38584e-06
1.38439e-06
1.3843e-06
1.38427e-06
1.38436e-06
1.38578e-06
1.38596e-06
1.38584e-06
1.38393e-06
1.3815e-06
1.3815e-06
1.3815e-06
1.38149e-06
1.38403e-06
1.38461e-06
1.38438e-06
1.38149e-06
1.38147e-06
1.38148e-06
1.38149e-06
1.38148e-06
1.38151e-06
1.38452e-06
1.38604e-06
1.38606e-06
1.3843e-06
1.38149e-06
1.38148e-06
1.38149e-06
1.3815e-06
1.38148e-06
1.3815e-06
1.38448e-06
1.38581e-06
1.38594e-06
1.38426e-06
1.38148e-06
1.38147e-06
1.38149e-06
1.3815e-06
1.38149e-06
1.3815e-06
1.38445e-06
1.38471e-06
1.38435e-06
1.38148e-06
1.38146e-06
1.38148e-06
1.38149e-06
1.38148e-06
1.3815e-06
1.38451e-06
1.38599e-06
1.38577e-06
1.38402e-06
1.3815e-06
1.3815e-06
1.3815e-06
1.3815e-06
1.38411e-06
1.38459e-06
1.38607e-06
1.38595e-06
1.3846e-06
1.38453e-06
1.38448e-06
1.38445e-06
1.3845e-06
1.38458e-06
1.38586e-06
1.38604e-06
1.38581e-06
1.3847e-06
1.38599e-06
1.38606e-06
1.37119e-06
1.37107e-06
1.37096e-06
1.3695e-06
1.36941e-06
1.36937e-06
1.36946e-06
1.37089e-06
1.37106e-06
1.37096e-06
1.36903e-06
1.3666e-06
1.36659e-06
1.36658e-06
1.36659e-06
1.36911e-06
1.36971e-06
1.3695e-06
1.3666e-06
1.36659e-06
1.36658e-06
1.36657e-06
1.36658e-06
1.36658e-06
1.36963e-06
1.37115e-06
1.37119e-06
1.36941e-06
1.3666e-06
1.36659e-06
1.36659e-06
1.36658e-06
1.36658e-06
1.36657e-06
1.36958e-06
1.37092e-06
1.37107e-06
1.36937e-06
1.36661e-06
1.3666e-06
1.3666e-06
1.36659e-06
1.36659e-06
1.36658e-06
1.36955e-06
1.36982e-06
1.36947e-06
1.36661e-06
1.3666e-06
1.36659e-06
1.3666e-06
1.36659e-06
1.36658e-06
1.3696e-06
1.3711e-06
1.37089e-06
1.36912e-06
1.36659e-06
1.36659e-06
1.3666e-06
1.3666e-06
1.36923e-06
1.36969e-06
1.37117e-06
1.37107e-06
1.36972e-06
1.36963e-06
1.36959e-06
1.36956e-06
1.36962e-06
1.3697e-06
1.37097e-06
1.37116e-06
1.37093e-06
1.36982e-06
1.37111e-06
1.37118e-06
1.35628e-06
1.35616e-06
1.35606e-06
1.35459e-06
1.3545e-06
1.35446e-06
1.35455e-06
1.35598e-06
1.35616e-06
1.35606e-06
1.35412e-06
1.35168e-06
1.35167e-06
1.35167e-06
1.35167e-06
1.3542e-06
1.35481e-06
1.35459e-06
1.35169e-06
1.35169e-06
1.35168e-06
1.35168e-06
1.35167e-06
1.35167e-06
1.35472e-06
1.35625e-06
1.35628e-06
1.3545e-06
1.35168e-06
1.35168e-06
1.35168e-06
1.35168e-06
1.35168e-06
1.35167e-06
1.35468e-06
1.35602e-06
1.35617e-06
1.35446e-06
1.35167e-06
1.35168e-06
1.35168e-06
1.35168e-06
1.35168e-06
1.35168e-06
1.35466e-06
1.35492e-06
1.35456e-06
1.35167e-06
1.35168e-06
1.35169e-06
1.35168e-06
1.35169e-06
1.35169e-06
1.35472e-06
1.3562e-06
1.35599e-06
1.35421e-06
1.35168e-06
1.35168e-06
1.35168e-06
1.35168e-06
1.35434e-06
1.3548e-06
1.35627e-06
1.35616e-06
1.35482e-06
1.35473e-06
1.35469e-06
1.35466e-06
1.35471e-06
1.3548e-06
1.35607e-06
1.35626e-06
1.35603e-06
1.35492e-06
1.3562e-06
1.35627e-06
1.34137e-06
1.34125e-06
1.34115e-06
1.33968e-06
1.33959e-06
1.33955e-06
1.33965e-06
1.34107e-06
1.34124e-06
1.34114e-06
1.33921e-06
1.33675e-06
1.33676e-06
1.33676e-06
1.33677e-06
1.33929e-06
1.33989e-06
1.33968e-06
1.33676e-06
1.33676e-06
1.33677e-06
1.33676e-06
1.33675e-06
1.33676e-06
1.33981e-06
1.34134e-06
1.34137e-06
1.33959e-06
1.33677e-06
1.33677e-06
1.33677e-06
1.33677e-06
1.33675e-06
1.33676e-06
1.33977e-06
1.34112e-06
1.34126e-06
1.33954e-06
1.33678e-06
1.33677e-06
1.33676e-06
1.33676e-06
1.33675e-06
1.33675e-06
1.33974e-06
1.34001e-06
1.33964e-06
1.33677e-06
1.33677e-06
1.33676e-06
1.33675e-06
1.33675e-06
1.33676e-06
1.33979e-06
1.34129e-06
1.34107e-06
1.3393e-06
1.33677e-06
1.33677e-06
1.33675e-06
1.33675e-06
1.33941e-06
1.33988e-06
1.34136e-06
1.34125e-06
1.3399e-06
1.33982e-06
1.33977e-06
1.33974e-06
1.33979e-06
1.33988e-06
1.34115e-06
1.34134e-06
1.34112e-06
1.34e-06
1.34129e-06
1.34136e-06
1.32645e-06
1.32634e-06
1.32623e-06
1.32476e-06
1.32467e-06
1.32462e-06
1.32472e-06
1.32615e-06
1.32633e-06
1.32623e-06
1.32429e-06
1.32185e-06
1.32184e-06
1.32185e-06
1.32184e-06
1.32437e-06
1.32498e-06
1.32476e-06
1.32183e-06
1.32183e-06
1.32183e-06
1.32184e-06
1.32184e-06
1.32183e-06
1.32489e-06
1.32642e-06
1.32645e-06
1.32467e-06
1.32183e-06
1.32183e-06
1.32183e-06
1.32183e-06
1.32183e-06
1.32183e-06
1.32485e-06
1.32619e-06
1.32634e-06
1.32462e-06
1.32183e-06
1.32183e-06
1.32183e-06
1.32183e-06
1.32184e-06
1.32183e-06
1.32482e-06
1.32508e-06
1.32473e-06
1.32184e-06
1.32183e-06
1.32183e-06
1.32183e-06
1.32183e-06
1.32183e-06
1.32487e-06
1.32637e-06
1.32616e-06
1.32437e-06
1.32184e-06
1.32184e-06
1.32184e-06
1.32183e-06
1.32449e-06
1.32496e-06
1.32644e-06
1.32633e-06
1.32498e-06
1.32489e-06
1.32485e-06
1.32482e-06
1.32487e-06
1.32496e-06
1.32623e-06
1.32642e-06
1.3262e-06
1.32509e-06
1.32637e-06
1.32644e-06
1.31155e-06
1.31144e-06
1.31132e-06
1.30986e-06
1.30977e-06
1.30973e-06
1.30983e-06
1.31126e-06
1.31143e-06
1.31132e-06
1.30939e-06
1.30694e-06
1.30695e-06
1.30694e-06
1.30695e-06
1.30947e-06
1.31008e-06
1.30985e-06
1.30695e-06
1.30695e-06
1.30695e-06
1.30695e-06
1.30695e-06
1.30696e-06
1.31e-06
1.31152e-06
1.31155e-06
1.30977e-06
1.30694e-06
1.30695e-06
1.30695e-06
1.30696e-06
1.30695e-06
1.30696e-06
1.30996e-06
1.3113e-06
1.31143e-06
1.30973e-06
1.30695e-06
1.30695e-06
1.30695e-06
1.30695e-06
1.30695e-06
1.30696e-06
1.30993e-06
1.31019e-06
1.30983e-06
1.30694e-06
1.30695e-06
1.30696e-06
1.30696e-06
1.30696e-06
1.30696e-06
1.30998e-06
1.31148e-06
1.31125e-06
1.30947e-06
1.30694e-06
1.30695e-06
1.30696e-06
1.30695e-06
1.3096e-06
1.31007e-06
1.31154e-06
1.31143e-06
1.31008e-06
1.30999e-06
1.30995e-06
1.30993e-06
1.30998e-06
1.31007e-06
1.31133e-06
1.31152e-06
1.3113e-06
1.31019e-06
1.31147e-06
1.31154e-06
1.29666e-06
1.29654e-06
1.29643e-06
1.29496e-06
1.29487e-06
1.29483e-06
1.29493e-06
1.29636e-06
1.29653e-06
1.29643e-06
1.2945e-06
1.29205e-06
1.29205e-06
1.29206e-06
1.29205e-06
1.29457e-06
1.29518e-06
1.29496e-06
1.29205e-06
1.29205e-06
1.29206e-06
1.29206e-06
1.29204e-06
1.29204e-06
1.29509e-06
1.29662e-06
1.29665e-06
1.29487e-06
1.29206e-06
1.29205e-06
1.29206e-06
1.29205e-06
1.29205e-06
1.29204e-06
1.29505e-06
1.29639e-06
1.29654e-06
1.29483e-06
1.29205e-06
1.29206e-06
1.29205e-06
1.29206e-06
1.29205e-06
1.29204e-06
1.29502e-06
1.29528e-06
1.29494e-06
1.29206e-06
1.29205e-06
1.29205e-06
1.29204e-06
1.29203e-06
1.29203e-06
1.29508e-06
1.29657e-06
1.29636e-06
1.29458e-06
1.29206e-06
1.29204e-06
1.29204e-06
1.29204e-06
1.29469e-06
1.29516e-06
1.29664e-06
1.29653e-06
1.29518e-06
1.2951e-06
1.29506e-06
1.29502e-06
1.29507e-06
1.29516e-06
1.29643e-06
1.29663e-06
1.2964e-06
1.29529e-06
1.29657e-06
1.29664e-06
1.28176e-06
1.28164e-06
1.28153e-06
1.28006e-06
1.27998e-06
1.27993e-06
1.28004e-06
1.28146e-06
1.28163e-06
1.28153e-06
1.27959e-06
1.27715e-06
1.27715e-06
1.27716e-06
1.27716e-06
1.27968e-06
1.28029e-06
1.28006e-06
1.27714e-06
1.27715e-06
1.27715e-06
1.27715e-06
1.27716e-06
1.27716e-06
1.2802e-06
1.28172e-06
1.28175e-06
1.27997e-06
1.27714e-06
1.27714e-06
1.27713e-06
1.27714e-06
1.27715e-06
1.27715e-06
1.28016e-06
1.2815e-06
1.28163e-06
1.27992e-06
1.27714e-06
1.27714e-06
1.27713e-06
1.27713e-06
1.27714e-06
1.27715e-06
1.28013e-06
1.28039e-06
1.28002e-06
1.27714e-06
1.27713e-06
1.27713e-06
1.27714e-06
1.27715e-06
1.27714e-06
1.28018e-06
1.28167e-06
1.28145e-06
1.27966e-06
1.27712e-06
1.27712e-06
1.27713e-06
1.27714e-06
1.2798e-06
1.28026e-06
1.28174e-06
1.28162e-06
1.28027e-06
1.28018e-06
1.28014e-06
1.28012e-06
1.28017e-06
1.28026e-06
1.28153e-06
1.28171e-06
1.28149e-06
1.28038e-06
1.28166e-06
1.28173e-06
1.26686e-06
1.26674e-06
1.26663e-06
1.26516e-06
1.26508e-06
1.26503e-06
1.26513e-06
1.26656e-06
1.26673e-06
1.26663e-06
1.2647e-06
1.26226e-06
1.26225e-06
1.26225e-06
1.26225e-06
1.26477e-06
1.26538e-06
1.26516e-06
1.26225e-06
1.26225e-06
1.26224e-06
1.26225e-06
1.26224e-06
1.26224e-06
1.26529e-06
1.26682e-06
1.26685e-06
1.26507e-06
1.26225e-06
1.26225e-06
1.26225e-06
1.26225e-06
1.26223e-06
1.26224e-06
1.26525e-06
1.2666e-06
1.26673e-06
1.26502e-06
1.26224e-06
1.26224e-06
1.26225e-06
1.26225e-06
1.26224e-06
1.26224e-06
1.26522e-06
1.26549e-06
1.26513e-06
1.26224e-06
1.26225e-06
1.26225e-06
1.26225e-06
1.26224e-06
1.26225e-06
1.26528e-06
1.26677e-06
1.26655e-06
1.26477e-06
1.26225e-06
1.26225e-06
1.26224e-06
1.26224e-06
1.2649e-06
1.26537e-06
1.26684e-06
1.26672e-06
1.26538e-06
1.2653e-06
1.26526e-06
1.26522e-06
1.26527e-06
1.26536e-06
1.26663e-06
1.26682e-06
1.26659e-06
1.26549e-06
1.26677e-06
1.26684e-06
1.25195e-06
1.25183e-06
1.25172e-06
1.25026e-06
1.25017e-06
1.25012e-06
1.25022e-06
1.25165e-06
1.25182e-06
1.25172e-06
1.24979e-06
1.24734e-06
1.24735e-06
1.24735e-06
1.24735e-06
1.24987e-06
1.25047e-06
1.25026e-06
1.24735e-06
1.24735e-06
1.24735e-06
1.24735e-06
1.24735e-06
1.24735e-06
1.25039e-06
1.25192e-06
1.25195e-06
1.25017e-06
1.24735e-06
1.24734e-06
1.24735e-06
1.24735e-06
1.24736e-06
1.24735e-06
1.25035e-06
1.25169e-06
1.25184e-06
1.25013e-06
1.24735e-06
1.24734e-06
1.24734e-06
1.24735e-06
1.24735e-06
1.24735e-06
1.25033e-06
1.25059e-06
1.25023e-06
1.24734e-06
1.24734e-06
1.24734e-06
1.24735e-06
1.24735e-06
1.24735e-06
1.25038e-06
1.25187e-06
1.25165e-06
1.24987e-06
1.24733e-06
1.24733e-06
1.24734e-06
1.24734e-06
1.25e-06
1.25047e-06
1.25194e-06
1.25182e-06
1.25048e-06
1.25039e-06
1.25035e-06
1.25032e-06
1.25038e-06
1.25046e-06
1.25173e-06
1.25192e-06
1.25169e-06
1.25059e-06
1.25187e-06
1.25194e-06
1.23704e-06
1.23692e-06
1.23681e-06
1.23534e-06
1.23526e-06
1.23521e-06
1.23531e-06
1.23674e-06
1.23691e-06
1.23682e-06
1.23488e-06
1.23242e-06
1.23243e-06
1.23243e-06
1.23242e-06
1.23495e-06
1.23556e-06
1.23536e-06
1.23244e-06
1.23244e-06
1.23243e-06
1.23244e-06
1.23242e-06
1.23243e-06
1.23548e-06
1.23701e-06
1.23705e-06
1.23527e-06
1.23245e-06
1.23245e-06
1.23245e-06
1.23244e-06
1.23243e-06
1.23243e-06
1.23544e-06
1.23678e-06
1.23694e-06
1.23523e-06
1.23245e-06
1.23246e-06
1.23246e-06
1.23244e-06
1.23244e-06
1.23243e-06
1.23541e-06
1.23568e-06
1.23533e-06
1.23245e-06
1.23246e-06
1.23245e-06
1.23243e-06
1.23243e-06
1.23243e-06
1.23547e-06
1.23696e-06
1.23676e-06
1.23498e-06
1.23246e-06
1.23246e-06
1.23244e-06
1.23243e-06
1.23509e-06
1.23555e-06
1.23703e-06
1.23693e-06
1.23558e-06
1.2355e-06
1.23546e-06
1.23542e-06
1.23547e-06
1.23556e-06
1.23683e-06
1.23702e-06
1.23679e-06
1.23569e-06
1.23697e-06
1.23703e-06
1.22213e-06
1.22201e-06
1.22191e-06
1.22044e-06
1.22035e-06
1.2203e-06
1.2204e-06
1.22183e-06
1.222e-06
1.22191e-06
1.21997e-06
1.21752e-06
1.21751e-06
1.21752e-06
1.21753e-06
1.22005e-06
1.22065e-06
1.22044e-06
1.21753e-06
1.21753e-06
1.21752e-06
1.21752e-06
1.21752e-06
1.21751e-06
1.22056e-06
1.2221e-06
1.22214e-06
1.22035e-06
1.21753e-06
1.21752e-06
1.21752e-06
1.21752e-06
1.21752e-06
1.21752e-06
1.22053e-06
1.22187e-06
1.22203e-06
1.22031e-06
1.21753e-06
1.21753e-06
1.21752e-06
1.21752e-06
1.21753e-06
1.21752e-06
1.22051e-06
1.22077e-06
1.22041e-06
1.21753e-06
1.21752e-06
1.21752e-06
1.21753e-06
1.21753e-06
1.21753e-06
1.22056e-06
1.22205e-06
1.22184e-06
1.22006e-06
1.21752e-06
1.21752e-06
1.21753e-06
1.21753e-06
1.22018e-06
1.22065e-06
1.22212e-06
1.22202e-06
1.22067e-06
1.22058e-06
1.22054e-06
1.22051e-06
1.22056e-06
1.22065e-06
1.22192e-06
1.22211e-06
1.22188e-06
1.22078e-06
1.22206e-06
1.22212e-06
1.20722e-06
1.2071e-06
1.20699e-06
1.20552e-06
1.20543e-06
1.20538e-06
1.20549e-06
1.20692e-06
1.20709e-06
1.20699e-06
1.20506e-06
1.20261e-06
1.20261e-06
1.2026e-06
1.2026e-06
1.20513e-06
1.20574e-06
1.20552e-06
1.2026e-06
1.2026e-06
1.20261e-06
1.20261e-06
1.2026e-06
1.2026e-06
1.20565e-06
1.20718e-06
1.20721e-06
1.20543e-06
1.2026e-06
1.2026e-06
1.20261e-06
1.20261e-06
1.2026e-06
1.20261e-06
1.20561e-06
1.20696e-06
1.2071e-06
1.20539e-06
1.2026e-06
1.2026e-06
1.20259e-06
1.2026e-06
1.2026e-06
1.20261e-06
1.20559e-06
1.20585e-06
1.20548e-06
1.20259e-06
1.2026e-06
1.20261e-06
1.2026e-06
1.20261e-06
1.20261e-06
1.20565e-06
1.20714e-06
1.20691e-06
1.20513e-06
1.2026e-06
1.20261e-06
1.20261e-06
1.20262e-06
1.20527e-06
1.20573e-06
1.20721e-06
1.20709e-06
1.20574e-06
1.20566e-06
1.20562e-06
1.20559e-06
1.20565e-06
1.20573e-06
1.207e-06
1.20719e-06
1.20696e-06
1.20585e-06
1.20714e-06
1.20721e-06
1.1923e-06
1.19218e-06
1.19207e-06
1.1906e-06
1.19051e-06
1.19047e-06
1.19057e-06
1.192e-06
1.19217e-06
1.19207e-06
1.19013e-06
1.18768e-06
1.18769e-06
1.18769e-06
1.18769e-06
1.19022e-06
1.19082e-06
1.1906e-06
1.18768e-06
1.18768e-06
1.18767e-06
1.18768e-06
1.18768e-06
1.18769e-06
1.19074e-06
1.19227e-06
1.19229e-06
1.19051e-06
1.18768e-06
1.18768e-06
1.18768e-06
1.18767e-06
1.18768e-06
1.18768e-06
1.1907e-06
1.19204e-06
1.19218e-06
1.19047e-06
1.18767e-06
1.18767e-06
1.18768e-06
1.18767e-06
1.18768e-06
1.18769e-06
1.19067e-06
1.19094e-06
1.19057e-06
1.18769e-06
1.18768e-06
1.18768e-06
1.18767e-06
1.18768e-06
1.1877e-06
1.19073e-06
1.19222e-06
1.192e-06
1.19021e-06
1.18769e-06
1.18767e-06
1.18767e-06
1.18767e-06
1.19035e-06
1.19082e-06
1.19229e-06
1.19217e-06
1.19082e-06
1.19074e-06
1.19069e-06
1.19066e-06
1.19072e-06
1.19081e-06
1.19209e-06
1.19227e-06
1.19204e-06
1.19093e-06
1.19222e-06
1.19229e-06
1.17739e-06
1.17728e-06
1.17717e-06
1.1757e-06
1.17561e-06
1.17557e-06
1.17567e-06
1.1771e-06
1.17727e-06
1.17717e-06
1.17523e-06
1.17279e-06
1.17279e-06
1.1728e-06
1.17279e-06
1.17532e-06
1.17592e-06
1.1757e-06
1.17279e-06
1.1728e-06
1.1728e-06
1.1728e-06
1.1728e-06
1.17279e-06
1.17584e-06
1.17736e-06
1.17739e-06
1.17561e-06
1.1728e-06
1.17281e-06
1.1728e-06
1.17281e-06
1.17281e-06
1.17279e-06
1.1758e-06
1.17714e-06
1.17728e-06
1.17557e-06
1.1728e-06
1.17281e-06
1.1728e-06
1.17281e-06
1.17281e-06
1.17279e-06
1.17577e-06
1.17603e-06
1.17567e-06
1.17279e-06
1.17279e-06
1.17279e-06
1.1728e-06
1.17279e-06
1.17279e-06
1.17583e-06
1.17732e-06
1.1771e-06
1.17531e-06
1.17279e-06
1.1728e-06
1.1728e-06
1.1728e-06
1.17545e-06
1.17591e-06
1.17739e-06
1.17727e-06
1.17592e-06
1.17584e-06
1.1758e-06
1.17577e-06
1.17582e-06
1.17591e-06
1.17718e-06
1.17737e-06
1.17714e-06
1.17603e-06
1.17731e-06
1.17739e-06
1.16248e-06
1.16237e-06
1.16226e-06
1.16079e-06
1.1607e-06
1.16066e-06
1.16076e-06
1.16219e-06
1.16236e-06
1.16226e-06
1.16032e-06
1.15787e-06
1.15787e-06
1.15787e-06
1.15788e-06
1.16041e-06
1.16101e-06
1.16079e-06
1.15786e-06
1.15787e-06
1.15787e-06
1.15787e-06
1.15787e-06
1.15788e-06
1.16093e-06
1.16246e-06
1.16248e-06
1.1607e-06
1.15786e-06
1.15787e-06
1.15786e-06
1.15786e-06
1.15786e-06
1.15788e-06
1.16089e-06
1.16223e-06
1.16237e-06
1.16066e-06
1.15787e-06
1.15787e-06
1.15787e-06
1.15786e-06
1.15786e-06
1.15787e-06
1.16086e-06
1.16112e-06
1.16076e-06
1.15788e-06
1.15788e-06
1.15788e-06
1.15787e-06
1.15787e-06
1.15786e-06
1.16091e-06
1.16241e-06
1.16219e-06
1.16041e-06
1.15789e-06
1.15789e-06
1.15788e-06
1.15789e-06
1.16054e-06
1.161e-06
1.16248e-06
1.16236e-06
1.16101e-06
1.16093e-06
1.1609e-06
1.16087e-06
1.16092e-06
1.16101e-06
1.16227e-06
1.16246e-06
1.16224e-06
1.16113e-06
1.16241e-06
1.16248e-06
1.14758e-06
1.14746e-06
1.14735e-06
1.14589e-06
1.14579e-06
1.14575e-06
1.14586e-06
1.14728e-06
1.14745e-06
1.14735e-06
1.14542e-06
1.14297e-06
1.14297e-06
1.14297e-06
1.14297e-06
1.1455e-06
1.1461e-06
1.14589e-06
1.14297e-06
1.14296e-06
1.14297e-06
1.14297e-06
1.14297e-06
1.14296e-06
1.14602e-06
1.14754e-06
1.14758e-06
1.1458e-06
1.14297e-06
1.14296e-06
1.14297e-06
1.14296e-06
1.14297e-06
1.14296e-06
1.14598e-06
1.14732e-06
1.14746e-06
1.14575e-06
1.14297e-06
1.14296e-06
1.14296e-06
1.14296e-06
1.14297e-06
1.14297e-06
1.14595e-06
1.14622e-06
1.14585e-06
1.14298e-06
1.14297e-06
1.14296e-06
1.14297e-06
1.14298e-06
1.14297e-06
1.146e-06
1.1475e-06
1.14728e-06
1.1455e-06
1.14296e-06
1.14296e-06
1.14297e-06
1.14297e-06
1.14562e-06
1.14609e-06
1.14757e-06
1.14745e-06
1.14611e-06
1.14602e-06
1.14598e-06
1.14595e-06
1.146e-06
1.14609e-06
1.14736e-06
1.14755e-06
1.14732e-06
1.14621e-06
1.1475e-06
1.14757e-06
1.13267e-06
1.13256e-06
1.13245e-06
1.13099e-06
1.13089e-06
1.13085e-06
1.13095e-06
1.13238e-06
1.13255e-06
1.13245e-06
1.13052e-06
1.12808e-06
1.12808e-06
1.12808e-06
1.12806e-06
1.13059e-06
1.1312e-06
1.13098e-06
1.12808e-06
1.12808e-06
1.12808e-06
1.12808e-06
1.12807e-06
1.12807e-06
1.13112e-06
1.13264e-06
1.13268e-06
1.1309e-06
1.12808e-06
1.12808e-06
1.12808e-06
1.12808e-06
1.12808e-06
1.12807e-06
1.13108e-06
1.13242e-06
1.13256e-06
1.13086e-06
1.12808e-06
1.12808e-06
1.12808e-06
1.12809e-06
1.12808e-06
1.12807e-06
1.13105e-06
1.13132e-06
1.13096e-06
1.12808e-06
1.12808e-06
1.12808e-06
1.12809e-06
1.12807e-06
1.12807e-06
1.13111e-06
1.1326e-06
1.13238e-06
1.1306e-06
1.12807e-06
1.12808e-06
1.12808e-06
1.12808e-06
1.13073e-06
1.1312e-06
1.13267e-06
1.13255e-06
1.13121e-06
1.13112e-06
1.13108e-06
1.13105e-06
1.13111e-06
1.13119e-06
1.13246e-06
1.13265e-06
1.13242e-06
1.13132e-06
1.1326e-06
1.13267e-06
1.11777e-06
1.11766e-06
1.11755e-06
1.11609e-06
1.11599e-06
1.11595e-06
1.11605e-06
1.11747e-06
1.11765e-06
1.11755e-06
1.11562e-06
1.11318e-06
1.11317e-06
1.11316e-06
1.11317e-06
1.11569e-06
1.1163e-06
1.11608e-06
1.11317e-06
1.11318e-06
1.11317e-06
1.11317e-06
1.11317e-06
1.11317e-06
1.11621e-06
1.11774e-06
1.11778e-06
1.11599e-06
1.11317e-06
1.11318e-06
1.11319e-06
1.11319e-06
1.11318e-06
1.11317e-06
1.11617e-06
1.11751e-06
1.11766e-06
1.11595e-06
1.11318e-06
1.11318e-06
1.11318e-06
1.11318e-06
1.11317e-06
1.11317e-06
1.11615e-06
1.11641e-06
1.11605e-06
1.11317e-06
1.11317e-06
1.11318e-06
1.11317e-06
1.11318e-06
1.11317e-06
1.1162e-06
1.11769e-06
1.11748e-06
1.1157e-06
1.11317e-06
1.11317e-06
1.11316e-06
1.11317e-06
1.11582e-06
1.11628e-06
1.11776e-06
1.11765e-06
1.11631e-06
1.11622e-06
1.11618e-06
1.11615e-06
1.1162e-06
1.11628e-06
1.11755e-06
1.11775e-06
1.11752e-06
1.11641e-06
1.11769e-06
1.11776e-06
1.10286e-06
1.10275e-06
1.10263e-06
1.10117e-06
1.10108e-06
1.10104e-06
1.10113e-06
1.10256e-06
1.10274e-06
1.10263e-06
1.10069e-06
1.09823e-06
1.09824e-06
1.09826e-06
1.09826e-06
1.10078e-06
1.10139e-06
1.10116e-06
1.09824e-06
1.09824e-06
1.09825e-06
1.09825e-06
1.09825e-06
1.09827e-06
1.10131e-06
1.10283e-06
1.10286e-06
1.10107e-06
1.09824e-06
1.09824e-06
1.09824e-06
1.09825e-06
1.09826e-06
1.09827e-06
1.10127e-06
1.10261e-06
1.10274e-06
1.10103e-06
1.09823e-06
1.09823e-06
1.09824e-06
1.09823e-06
1.09825e-06
1.09825e-06
1.10124e-06
1.1015e-06
1.10113e-06
1.09823e-06
1.09823e-06
1.09823e-06
1.09823e-06
1.09824e-06
1.09825e-06
1.10129e-06
1.10279e-06
1.10256e-06
1.10077e-06
1.09824e-06
1.09824e-06
1.09825e-06
1.09824e-06
1.1009e-06
1.10137e-06
1.10285e-06
1.10273e-06
1.10139e-06
1.1013e-06
1.10125e-06
1.10123e-06
1.10129e-06
1.10137e-06
1.10264e-06
1.10283e-06
1.1026e-06
1.1015e-06
1.10278e-06
1.10285e-06
1.08795e-06
1.08784e-06
1.08772e-06
1.08626e-06
1.08616e-06
1.08612e-06
1.08623e-06
1.08766e-06
1.08783e-06
1.08773e-06
1.08579e-06
1.08334e-06
1.08335e-06
1.08334e-06
1.08335e-06
1.08588e-06
1.08648e-06
1.08626e-06
1.08335e-06
1.08334e-06
1.08334e-06
1.08335e-06
1.08335e-06
1.08334e-06
1.0864e-06
1.08793e-06
1.08795e-06
1.08617e-06
1.08334e-06
1.08333e-06
1.08333e-06
1.08334e-06
1.08334e-06
1.08335e-06
1.08636e-06
1.0877e-06
1.08784e-06
1.08613e-06
1.08335e-06
1.08334e-06
1.08335e-06
1.08336e-06
1.08335e-06
1.08335e-06
1.08633e-06
1.08659e-06
1.08623e-06
1.08336e-06
1.08335e-06
1.08335e-06
1.08335e-06
1.08335e-06
1.08335e-06
1.08638e-06
1.08788e-06
1.08766e-06
1.08588e-06
1.08336e-06
1.08335e-06
1.08334e-06
1.08335e-06
1.086e-06
1.08647e-06
1.08795e-06
1.08783e-06
1.08648e-06
1.08639e-06
1.08636e-06
1.08633e-06
1.08638e-06
1.08647e-06
1.08774e-06
1.08792e-06
1.0877e-06
1.08659e-06
1.08787e-06
1.08794e-06
1.07305e-06
1.07294e-06
1.07283e-06
1.07136e-06
1.07128e-06
1.07123e-06
1.07133e-06
1.07276e-06
1.07293e-06
1.07283e-06
1.07089e-06
1.06845e-06
1.06845e-06
1.06845e-06
1.06845e-06
1.07098e-06
1.07159e-06
1.07136e-06
1.06845e-06
1.06845e-06
1.06844e-06
1.06845e-06
1.06845e-06
1.06846e-06
1.0715e-06
1.07303e-06
1.07305e-06
1.07127e-06
1.06845e-06
1.06845e-06
1.06845e-06
1.06846e-06
1.06846e-06
1.06846e-06
1.07146e-06
1.0728e-06
1.07294e-06
1.07123e-06
1.06845e-06
1.06845e-06
1.06845e-06
1.06845e-06
1.06846e-06
1.06846e-06
1.07144e-06
1.0717e-06
1.07133e-06
1.06846e-06
1.06846e-06
1.06845e-06
1.06846e-06
1.06846e-06
1.06847e-06
1.0715e-06
1.07298e-06
1.07276e-06
1.07099e-06
1.06846e-06
1.06846e-06
1.06847e-06
1.06847e-06
1.07112e-06
1.07158e-06
1.07305e-06
1.07294e-06
1.07159e-06
1.0715e-06
1.07146e-06
1.07144e-06
1.07149e-06
1.07158e-06
1.07285e-06
1.07303e-06
1.07281e-06
1.0717e-06
1.07299e-06
1.07305e-06
1.05816e-06
1.05804e-06
1.05793e-06
1.05647e-06
1.05637e-06
1.05633e-06
1.05643e-06
1.05786e-06
1.05803e-06
1.05794e-06
1.056e-06
1.05357e-06
1.05356e-06
1.05356e-06
1.05356e-06
1.05608e-06
1.05668e-06
1.05647e-06
1.05356e-06
1.05357e-06
1.05357e-06
1.05357e-06
1.05356e-06
1.05355e-06
1.0566e-06
1.05812e-06
1.05816e-06
1.05638e-06
1.05357e-06
1.05358e-06
1.05357e-06
1.05357e-06
1.05355e-06
1.05354e-06
1.05656e-06
1.0579e-06
1.05805e-06
1.05634e-06
1.05357e-06
1.05358e-06
1.05357e-06
1.05355e-06
1.05355e-06
1.05354e-06
1.05653e-06
1.05679e-06
1.05644e-06
1.05356e-06
1.05357e-06
1.05357e-06
1.05355e-06
1.05354e-06
1.05354e-06
1.05658e-06
1.05807e-06
1.05786e-06
1.05608e-06
1.05356e-06
1.05356e-06
1.05355e-06
1.05353e-06
1.0562e-06
1.05666e-06
1.05814e-06
1.05803e-06
1.05669e-06
1.0566e-06
1.05656e-06
1.05653e-06
1.05657e-06
1.05666e-06
1.05793e-06
1.05813e-06
1.0579e-06
1.05679e-06
1.05807e-06
1.05814e-06
1.04325e-06
1.04313e-06
1.04302e-06
1.04155e-06
1.04146e-06
1.04142e-06
1.04152e-06
1.04294e-06
1.04312e-06
1.04302e-06
1.04108e-06
1.03864e-06
1.03864e-06
1.03863e-06
1.03863e-06
1.04116e-06
1.04177e-06
1.04155e-06
1.03864e-06
1.03864e-06
1.03864e-06
1.03863e-06
1.03863e-06
1.03863e-06
1.04168e-06
1.04321e-06
1.04324e-06
1.04146e-06
1.03863e-06
1.03863e-06
1.03863e-06
1.03863e-06
1.03863e-06
1.03863e-06
1.04164e-06
1.04298e-06
1.04312e-06
1.04141e-06
1.03862e-06
1.03862e-06
1.03862e-06
1.03862e-06
1.03862e-06
1.03863e-06
1.04161e-06
1.04188e-06
1.04151e-06
1.03861e-06
1.03861e-06
1.03862e-06
1.03862e-06
1.03862e-06
1.03863e-06
1.04167e-06
1.04316e-06
1.04293e-06
1.04114e-06
1.03861e-06
1.03861e-06
1.03862e-06
1.03862e-06
1.04129e-06
1.04175e-06
1.04323e-06
1.04311e-06
1.04175e-06
1.04167e-06
1.04163e-06
1.0416e-06
1.04166e-06
1.04175e-06
1.04302e-06
1.0432e-06
1.04297e-06
1.04187e-06
1.04316e-06
1.04323e-06
1.02832e-06
1.02821e-06
1.0281e-06
1.02663e-06
1.02654e-06
1.02649e-06
1.02659e-06
1.02802e-06
1.0282e-06
1.0281e-06
1.02616e-06
1.0237e-06
1.02369e-06
1.0237e-06
1.02371e-06
1.02624e-06
1.02685e-06
1.02663e-06
1.02371e-06
1.0237e-06
1.02369e-06
1.02369e-06
1.0237e-06
1.02371e-06
1.02676e-06
1.02829e-06
1.02832e-06
1.02654e-06
1.02371e-06
1.0237e-06
1.02369e-06
1.02369e-06
1.0237e-06
1.02371e-06
1.02672e-06
1.02807e-06
1.02821e-06
1.0265e-06
1.02371e-06
1.02371e-06
1.02371e-06
1.02372e-06
1.02372e-06
1.02371e-06
1.0267e-06
1.02696e-06
1.0266e-06
1.02371e-06
1.02372e-06
1.02371e-06
1.02371e-06
1.02372e-06
1.02372e-06
1.02675e-06
1.02825e-06
1.02802e-06
1.02624e-06
1.02372e-06
1.02371e-06
1.02371e-06
1.02372e-06
1.02637e-06
1.02684e-06
1.02832e-06
1.0282e-06
1.02685e-06
1.02677e-06
1.02673e-06
1.0267e-06
1.02675e-06
1.02684e-06
1.02811e-06
1.0283e-06
1.02807e-06
1.02696e-06
1.02825e-06
1.02831e-06
1.01342e-06
1.0133e-06
1.01319e-06
1.01172e-06
1.01164e-06
1.0116e-06
1.01169e-06
1.01312e-06
1.01329e-06
1.01319e-06
1.01126e-06
1.00882e-06
1.00883e-06
1.00882e-06
1.0088e-06
1.01133e-06
1.01194e-06
1.01173e-06
1.00882e-06
1.00883e-06
1.00882e-06
1.00881e-06
1.00881e-06
1.00881e-06
1.01185e-06
1.01338e-06
1.01342e-06
1.01164e-06
1.00882e-06
1.00882e-06
1.00881e-06
1.00881e-06
1.0088e-06
1.0088e-06
1.01181e-06
1.01315e-06
1.0133e-06
1.01159e-06
1.00882e-06
1.00883e-06
1.00881e-06
1.0088e-06
1.0088e-06
1.0088e-06
1.01178e-06
1.01205e-06
1.01169e-06
1.00882e-06
1.00881e-06
1.00881e-06
1.00881e-06
1.0088e-06
1.0088e-06
1.01184e-06
1.01334e-06
1.01312e-06
1.01134e-06
1.00881e-06
1.0088e-06
1.00881e-06
1.00881e-06
1.01146e-06
1.01193e-06
1.0134e-06
1.01329e-06
1.01194e-06
1.01186e-06
1.01181e-06
1.01178e-06
1.01184e-06
1.01193e-06
1.0132e-06
1.01338e-06
1.01316e-06
1.01205e-06
1.01333e-06
1.0134e-06
9.98512e-07
9.984e-07
9.98283e-07
9.96813e-07
9.96727e-07
9.96686e-07
9.96791e-07
9.98218e-07
9.9839e-07
9.98281e-07
9.96344e-07
9.9389e-07
9.93894e-07
9.93903e-07
9.93917e-07
9.96439e-07
9.97041e-07
9.96815e-07
9.9389e-07
9.9389e-07
9.93904e-07
9.93918e-07
9.93918e-07
9.93913e-07
9.96956e-07
9.98481e-07
9.98506e-07
9.96727e-07
9.93895e-07
9.93893e-07
9.93913e-07
9.93923e-07
9.93924e-07
9.93913e-07
9.96914e-07
9.98255e-07
9.98391e-07
9.96685e-07
9.939e-07
9.93897e-07
9.93903e-07
9.93903e-07
9.93905e-07
9.93908e-07
9.96887e-07
9.97147e-07
9.96781e-07
9.93901e-07
9.93887e-07
9.93893e-07
9.93905e-07
9.93903e-07
9.93908e-07
9.96939e-07
9.98433e-07
9.98211e-07
9.96427e-07
9.9388e-07
9.93891e-07
9.93906e-07
9.93917e-07
9.96563e-07
9.97027e-07
9.98502e-07
9.98382e-07
9.97034e-07
9.96942e-07
9.96902e-07
9.9688e-07
9.96937e-07
9.97026e-07
9.98296e-07
9.98475e-07
9.98247e-07
9.9714e-07
9.98426e-07
9.98497e-07
9.83611e-07
9.83497e-07
9.83384e-07
9.81919e-07
9.8183e-07
9.81786e-07
9.81886e-07
9.83312e-07
9.83484e-07
9.83382e-07
9.81451e-07
9.79017e-07
9.79016e-07
9.79012e-07
9.79003e-07
9.81528e-07
9.82132e-07
9.81913e-07
9.79013e-07
9.79014e-07
9.79009e-07
9.79002e-07
9.78997e-07
9.78997e-07
9.82046e-07
9.83576e-07
9.83604e-07
9.81824e-07
9.79013e-07
9.79016e-07
9.79006e-07
9.78989e-07
9.78987e-07
9.78995e-07
9.82007e-07
9.83351e-07
9.83486e-07
9.81776e-07
9.79001e-07
9.79002e-07
9.79006e-07
9.78998e-07
9.78996e-07
9.78993e-07
9.8198e-07
9.82244e-07
9.81872e-07
9.78991e-07
9.78997e-07
9.78999e-07
9.78988e-07
9.78997e-07
9.78994e-07
9.82031e-07
9.83525e-07
9.83299e-07
9.8152e-07
9.78997e-07
9.79005e-07
9.78984e-07
9.78988e-07
9.81652e-07
9.82118e-07
9.83594e-07
9.83473e-07
9.82131e-07
9.82047e-07
9.82008e-07
9.81973e-07
9.82028e-07
9.82117e-07
9.83388e-07
9.83574e-07
9.83347e-07
9.82239e-07
9.83521e-07
9.83591e-07
9.6869e-07
9.68574e-07
9.68462e-07
9.66995e-07
9.66905e-07
9.66863e-07
9.66963e-07
9.68393e-07
9.68566e-07
9.6846e-07
9.66521e-07
9.64073e-07
9.64069e-07
9.64078e-07
9.6408e-07
9.6661e-07
9.67215e-07
9.66989e-07
9.64077e-07
9.6408e-07
9.64083e-07
9.64083e-07
9.64084e-07
9.64083e-07
9.6713e-07
9.6866e-07
9.68686e-07
9.66897e-07
9.64063e-07
9.64062e-07
9.64077e-07
9.64088e-07
9.64089e-07
9.64087e-07
9.6709e-07
9.68434e-07
9.68572e-07
9.66857e-07
9.64064e-07
9.64069e-07
9.64076e-07
9.64084e-07
9.64085e-07
9.64085e-07
9.67064e-07
9.67329e-07
9.66962e-07
9.64076e-07
9.64073e-07
9.64074e-07
9.64084e-07
9.64073e-07
9.64071e-07
9.67116e-07
9.6861e-07
9.68391e-07
9.6661e-07
9.64073e-07
9.64067e-07
9.64079e-07
9.64076e-07
9.66735e-07
9.67203e-07
9.68678e-07
9.68565e-07
9.6722e-07
9.67132e-07
9.6709e-07
9.67059e-07
9.67113e-07
9.67202e-07
9.68472e-07
9.6866e-07
9.68433e-07
9.67324e-07
9.68607e-07
9.68676e-07
9.53772e-07
9.53657e-07
9.53544e-07
9.52077e-07
9.51987e-07
9.51945e-07
9.52045e-07
9.53473e-07
9.53646e-07
9.53545e-07
9.51606e-07
9.49159e-07
9.49155e-07
9.49153e-07
9.49154e-07
9.51687e-07
9.52293e-07
9.52077e-07
9.49155e-07
9.49157e-07
9.49146e-07
9.49143e-07
9.49144e-07
9.49154e-07
9.52207e-07
9.53739e-07
9.53775e-07
9.51992e-07
9.49165e-07
9.49164e-07
9.49151e-07
9.49146e-07
9.49146e-07
9.49155e-07
9.52166e-07
9.53514e-07
9.53661e-07
9.51953e-07
9.49171e-07
9.49156e-07
9.49149e-07
9.49149e-07
9.49153e-07
9.49156e-07
9.5214e-07
9.52407e-07
9.52053e-07
9.49174e-07
9.49166e-07
9.49161e-07
9.49157e-07
9.49164e-07
9.49162e-07
9.52199e-07
9.53694e-07
9.53481e-07
9.51701e-07
9.49173e-07
9.49178e-07
9.49169e-07
9.4916e-07
9.51822e-07
9.52289e-07
9.53763e-07
9.53654e-07