/*--------------------------------*- C++ -*----------------------------------*\
| =========                 |                                                 |
| \\      /  F ield         | OpenFOAM: The Open Source CFD Toolbox           |
|  \\    /   O peration     | Version:  v2012                                 |
|   \\  /    A nd           | Website:  www.openfoam.com                      |
|    \\/     M anipulation  |                                                 |
\*---------------------------------------------------------------------------*/
FoamFile
{
    version     2.0;
    format      ascii;
    class       volScalarField;
    location    "20.5";
    object      p;
}
// * * * * * * * * * * * * * * * * * * * * * * * * * * * * * * * * * * * * * //

dimensions      [0 2 -2 0 0 0 0];


internalField   nonuniform List<scalar> 
244288
(
1.39547e-06
1.39551e-06
1.39549e-06
1.39542e-06
1.39538e-06
1.39543e-06
1.39549e-06
1.39551e-06
1.39553e-06
1.39533e-06
1.3951e-06
1.39501e-06
1.39512e-06
1.39536e-06
1.39554e-06
1.39549e-06
1.39532e-06
1.39494e-06
1.39463e-06
1.39452e-06
1.39466e-06
1.39499e-06
1.39536e-06
1.39548e-06
1.39542e-06
1.3951e-06
1.39463e-06
1.39427e-06
1.39415e-06
1.3943e-06
1.39468e-06
1.39515e-06
1.39544e-06
1.39547e-06
1.39538e-06
1.39501e-06
1.39452e-06
1.39415e-06
1.39403e-06
1.39418e-06
1.39458e-06
1.39507e-06
1.3954e-06
1.39543e-06
1.39512e-06
1.39466e-06
1.3943e-06
1.39418e-06
1.39433e-06
1.39471e-06
1.39517e-06
1.39544e-06
1.39549e-06
1.39536e-06
1.39499e-06
1.39468e-06
1.39458e-06
1.39471e-06
1.39504e-06
1.39539e-06
1.39548e-06
1.39554e-06
1.39536e-06
1.39515e-06
1.39507e-06
1.39517e-06
1.39539e-06
1.39555e-06
1.39548e-06
1.39544e-06
1.3954e-06
1.39544e-06
1.39548e-06
1.37512e-06
1.37483e-06
1.37468e-06
1.37334e-06
1.37324e-06
1.37322e-06
1.37327e-06
1.37464e-06
1.37475e-06
1.37468e-06
1.37285e-06
1.37063e-06
1.37063e-06
1.37064e-06
1.37063e-06
1.37298e-06
1.37348e-06
1.37334e-06
1.37063e-06
1.37059e-06
1.37064e-06
1.37064e-06
1.3706e-06
1.37063e-06
1.37345e-06
1.37489e-06
1.37512e-06
1.37324e-06
1.37063e-06
1.37064e-06
1.37069e-06
1.37069e-06
1.37064e-06
1.37064e-06
1.37341e-06
1.37467e-06
1.37483e-06
1.37322e-06
1.37063e-06
1.37064e-06
1.37068e-06
1.37068e-06
1.37064e-06
1.37063e-06
1.37338e-06
1.3736e-06
1.37327e-06
1.37063e-06
1.37059e-06
1.37063e-06
1.37064e-06
1.37059e-06
1.37063e-06
1.37344e-06
1.37482e-06
1.37464e-06
1.37298e-06
1.37063e-06
1.37063e-06
1.37063e-06
1.37063e-06
1.37306e-06
1.3735e-06
1.3749e-06
1.37475e-06
1.37348e-06
1.37345e-06
1.37341e-06
1.37337e-06
1.37343e-06
1.3735e-06
1.37465e-06
1.37489e-06
1.37467e-06
1.3736e-06
1.37482e-06
1.3749e-06
1.36047e-06
1.36036e-06
1.36025e-06
1.35883e-06
1.35874e-06
1.35871e-06
1.35881e-06
1.36019e-06
1.36036e-06
1.36025e-06
1.35837e-06
1.35601e-06
1.35601e-06
1.35601e-06
1.35601e-06
1.35848e-06
1.35905e-06
1.35883e-06
1.35601e-06
1.35599e-06
1.356e-06
1.356e-06
1.35599e-06
1.35601e-06
1.35898e-06
1.36045e-06
1.36047e-06
1.35875e-06
1.35601e-06
1.356e-06
1.35601e-06
1.35601e-06
1.356e-06
1.35601e-06
1.35894e-06
1.36022e-06
1.36035e-06
1.35871e-06
1.35601e-06
1.356e-06
1.35601e-06
1.35601e-06
1.356e-06
1.35601e-06
1.35891e-06
1.35914e-06
1.3588e-06
1.35601e-06
1.35599e-06
1.356e-06
1.356e-06
1.35599e-06
1.35601e-06
1.35897e-06
1.36041e-06
1.36019e-06
1.35848e-06
1.35601e-06
1.35601e-06
1.35601e-06
1.35601e-06
1.35859e-06
1.35903e-06
1.36047e-06
1.36036e-06
1.35906e-06
1.35898e-06
1.35894e-06
1.35891e-06
1.35896e-06
1.35903e-06
1.36028e-06
1.36046e-06
1.36023e-06
1.35915e-06
1.3604e-06
1.36047e-06
1.34587e-06
1.34576e-06
1.34565e-06
1.34422e-06
1.34413e-06
1.34409e-06
1.34419e-06
1.34559e-06
1.34575e-06
1.34565e-06
1.34376e-06
1.34138e-06
1.34139e-06
1.34138e-06
1.34138e-06
1.34385e-06
1.34445e-06
1.34422e-06
1.34139e-06
1.34138e-06
1.34139e-06
1.34139e-06
1.34138e-06
1.34138e-06
1.34437e-06
1.34585e-06
1.34587e-06
1.34413e-06
1.34139e-06
1.34139e-06
1.3414e-06
1.34139e-06
1.34139e-06
1.34138e-06
1.34434e-06
1.34563e-06
1.34576e-06
1.34409e-06
1.34139e-06
1.34139e-06
1.3414e-06
1.34139e-06
1.34139e-06
1.34138e-06
1.34431e-06
1.34455e-06
1.34419e-06
1.34139e-06
1.34139e-06
1.34139e-06
1.34139e-06
1.34138e-06
1.34138e-06
1.34436e-06
1.34581e-06
1.34559e-06
1.34386e-06
1.34138e-06
1.34139e-06
1.34139e-06
1.34138e-06
1.34399e-06
1.34443e-06
1.34587e-06
1.34575e-06
1.34445e-06
1.34437e-06
1.34433e-06
1.34431e-06
1.34436e-06
1.34443e-06
1.34568e-06
1.34585e-06
1.34563e-06
1.34455e-06
1.34581e-06
1.34587e-06
1.33125e-06
1.33114e-06
1.33103e-06
1.32959e-06
1.3295e-06
1.32946e-06
1.32956e-06
1.33096e-06
1.33113e-06
1.33102e-06
1.32913e-06
1.32675e-06
1.32675e-06
1.32675e-06
1.32675e-06
1.32922e-06
1.32982e-06
1.32959e-06
1.32675e-06
1.32675e-06
1.32675e-06
1.32675e-06
1.32675e-06
1.32675e-06
1.32975e-06
1.33123e-06
1.33125e-06
1.3295e-06
1.32675e-06
1.32675e-06
1.32676e-06
1.32676e-06
1.32675e-06
1.32675e-06
1.32971e-06
1.33101e-06
1.33114e-06
1.32946e-06
1.32675e-06
1.32675e-06
1.32676e-06
1.32676e-06
1.32675e-06
1.32675e-06
1.32968e-06
1.32993e-06
1.32956e-06
1.32675e-06
1.32675e-06
1.32675e-06
1.32675e-06
1.32675e-06
1.32675e-06
1.32973e-06
1.33119e-06
1.33096e-06
1.32922e-06
1.32675e-06
1.32675e-06
1.32675e-06
1.32675e-06
1.32937e-06
1.32981e-06
1.33124e-06
1.33113e-06
1.32982e-06
1.32974e-06
1.32971e-06
1.32968e-06
1.32973e-06
1.32981e-06
1.33105e-06
1.33123e-06
1.33101e-06
1.32993e-06
1.33119e-06
1.33124e-06
1.31661e-06
1.3165e-06
1.31639e-06
1.31496e-06
1.31487e-06
1.31483e-06
1.31493e-06
1.31633e-06
1.31649e-06
1.31639e-06
1.31449e-06
1.31211e-06
1.31211e-06
1.31211e-06
1.31211e-06
1.31459e-06
1.31518e-06
1.31496e-06
1.31211e-06
1.31211e-06
1.31211e-06
1.31211e-06
1.31211e-06
1.31211e-06
1.31511e-06
1.3166e-06
1.31661e-06
1.31487e-06
1.31211e-06
1.31211e-06
1.31211e-06
1.31211e-06
1.31211e-06
1.31211e-06
1.31507e-06
1.31638e-06
1.3165e-06
1.31483e-06
1.31211e-06
1.31211e-06
1.31211e-06
1.31211e-06
1.31211e-06
1.31211e-06
1.31505e-06
1.31529e-06
1.31493e-06
1.31211e-06
1.31211e-06
1.31211e-06
1.31211e-06
1.31211e-06
1.31211e-06
1.3151e-06
1.31655e-06
1.31632e-06
1.31458e-06
1.31211e-06
1.31211e-06
1.31211e-06
1.31211e-06
1.31473e-06
1.31517e-06
1.31661e-06
1.31649e-06
1.31518e-06
1.31511e-06
1.31507e-06
1.31504e-06
1.31509e-06
1.31517e-06
1.31642e-06
1.31659e-06
1.31637e-06
1.31529e-06
1.31655e-06
1.31661e-06
1.30197e-06
1.30186e-06
1.30175e-06
1.30031e-06
1.30022e-06
1.30018e-06
1.30028e-06
1.30169e-06
1.30185e-06
1.30175e-06
1.29985e-06
1.29746e-06
1.29746e-06
1.29747e-06
1.29746e-06
1.29994e-06
1.30054e-06
1.30031e-06
1.29746e-06
1.29746e-06
1.29746e-06
1.29746e-06
1.29746e-06
1.29746e-06
1.30047e-06
1.30195e-06
1.30197e-06
1.30022e-06
1.29746e-06
1.29746e-06
1.29746e-06
1.29746e-06
1.29746e-06
1.29746e-06
1.30043e-06
1.30173e-06
1.30186e-06
1.30018e-06
1.29746e-06
1.29746e-06
1.29746e-06
1.29746e-06
1.29746e-06
1.29746e-06
1.3004e-06
1.30065e-06
1.30028e-06
1.29746e-06
1.29746e-06
1.29746e-06
1.29746e-06
1.29746e-06
1.29746e-06
1.30045e-06
1.30191e-06
1.30169e-06
1.29994e-06
1.29746e-06
1.29746e-06
1.29746e-06
1.29746e-06
1.30009e-06
1.30053e-06
1.30197e-06
1.30185e-06
1.30054e-06
1.30046e-06
1.30043e-06
1.3004e-06
1.30045e-06
1.30053e-06
1.30178e-06
1.30195e-06
1.30173e-06
1.30065e-06
1.30191e-06
1.30197e-06
1.28733e-06
1.28723e-06
1.28711e-06
1.28568e-06
1.28559e-06
1.28555e-06
1.28565e-06
1.28705e-06
1.28721e-06
1.28711e-06
1.28522e-06
1.28283e-06
1.28284e-06
1.28283e-06
1.28284e-06
1.28531e-06
1.28591e-06
1.28568e-06
1.28283e-06
1.28284e-06
1.28284e-06
1.28284e-06
1.28284e-06
1.28284e-06
1.28584e-06
1.28732e-06
1.28734e-06
1.28559e-06
1.28283e-06
1.28284e-06
1.28284e-06
1.28284e-06
1.28284e-06
1.28284e-06
1.2858e-06
1.2871e-06
1.28723e-06
1.28555e-06
1.28284e-06
1.28284e-06
1.28284e-06
1.28284e-06
1.28284e-06
1.28284e-06
1.28577e-06
1.28602e-06
1.28565e-06
1.28283e-06
1.28284e-06
1.28284e-06
1.28284e-06
1.28284e-06
1.28284e-06
1.28582e-06
1.28728e-06
1.28705e-06
1.28531e-06
1.28283e-06
1.28284e-06
1.28284e-06
1.28284e-06
1.28546e-06
1.2859e-06
1.28733e-06
1.28721e-06
1.28591e-06
1.28583e-06
1.2858e-06
1.28577e-06
1.28582e-06
1.2859e-06
1.28714e-06
1.28732e-06
1.2871e-06
1.28602e-06
1.28728e-06
1.28733e-06
1.2727e-06
1.2726e-06
1.27248e-06
1.27105e-06
1.27096e-06
1.27092e-06
1.27102e-06
1.27242e-06
1.27258e-06
1.27248e-06
1.27059e-06
1.2682e-06
1.2682e-06
1.2682e-06
1.2682e-06
1.27068e-06
1.27128e-06
1.27105e-06
1.2682e-06
1.2682e-06
1.2682e-06
1.2682e-06
1.2682e-06
1.2682e-06
1.2712e-06
1.27268e-06
1.2727e-06
1.27096e-06
1.2682e-06
1.2682e-06
1.2682e-06
1.2682e-06
1.2682e-06
1.2682e-06
1.27116e-06
1.27246e-06
1.27259e-06
1.27092e-06
1.2682e-06
1.2682e-06
1.2682e-06
1.2682e-06
1.2682e-06
1.2682e-06
1.27113e-06
1.27138e-06
1.27102e-06
1.2682e-06
1.2682e-06
1.2682e-06
1.2682e-06
1.2682e-06
1.2682e-06
1.27118e-06
1.27264e-06
1.27242e-06
1.27068e-06
1.2682e-06
1.2682e-06
1.2682e-06
1.2682e-06
1.27082e-06
1.27126e-06
1.2727e-06
1.27258e-06
1.27127e-06
1.2712e-06
1.27116e-06
1.27114e-06
1.27119e-06
1.27126e-06
1.27251e-06
1.27268e-06
1.27246e-06
1.27138e-06
1.27264e-06
1.2727e-06
1.25807e-06
1.25796e-06
1.25784e-06
1.25641e-06
1.25633e-06
1.25628e-06
1.25638e-06
1.25778e-06
1.25795e-06
1.25784e-06
1.25595e-06
1.25356e-06
1.25356e-06
1.25356e-06
1.25356e-06
1.25604e-06
1.25664e-06
1.25641e-06
1.25356e-06
1.25356e-06
1.25356e-06
1.25356e-06
1.25357e-06
1.25357e-06
1.25657e-06
1.25805e-06
1.25806e-06
1.25632e-06
1.25356e-06
1.25356e-06
1.25356e-06
1.25356e-06
1.25356e-06
1.25356e-06
1.25653e-06
1.25783e-06
1.25795e-06
1.25628e-06
1.25356e-06
1.25356e-06
1.25356e-06
1.25356e-06
1.25356e-06
1.25356e-06
1.2565e-06
1.25675e-06
1.25638e-06
1.25356e-06
1.25356e-06
1.25356e-06
1.25356e-06
1.25356e-06
1.25356e-06
1.25655e-06
1.25801e-06
1.25778e-06
1.25604e-06
1.25356e-06
1.25356e-06
1.25356e-06
1.25356e-06
1.25618e-06
1.25662e-06
1.25806e-06
1.25794e-06
1.25663e-06
1.25656e-06
1.25652e-06
1.2565e-06
1.25655e-06
1.25662e-06
1.25787e-06
1.25805e-06
1.25783e-06
1.25674e-06
1.258e-06
1.25806e-06
1.24343e-06
1.24332e-06
1.24321e-06
1.24178e-06
1.24169e-06
1.24165e-06
1.24175e-06
1.24315e-06
1.24331e-06
1.24321e-06
1.24132e-06
1.23893e-06
1.23893e-06
1.23893e-06
1.23893e-06
1.24141e-06
1.242e-06
1.24178e-06
1.23893e-06
1.23893e-06
1.23893e-06
1.23893e-06
1.23893e-06
1.23893e-06
1.24193e-06
1.24341e-06
1.24343e-06
1.24169e-06
1.23893e-06
1.23893e-06
1.23893e-06
1.23893e-06
1.23893e-06
1.23893e-06
1.24189e-06
1.24319e-06
1.24332e-06
1.24165e-06
1.23893e-06
1.23893e-06
1.23893e-06
1.23893e-06
1.23893e-06
1.23893e-06
1.24187e-06
1.24211e-06
1.24175e-06
1.23893e-06
1.23893e-06
1.23893e-06
1.23893e-06
1.23893e-06
1.23893e-06
1.24192e-06
1.24337e-06
1.24315e-06
1.24141e-06
1.23893e-06
1.23893e-06
1.23893e-06
1.23893e-06
1.24155e-06
1.24199e-06
1.24343e-06
1.24331e-06
1.24201e-06
1.24193e-06
1.2419e-06
1.24187e-06
1.24192e-06
1.24199e-06
1.24323e-06
1.24342e-06
1.2432e-06
1.24211e-06
1.24337e-06
1.24343e-06
1.2288e-06
1.22869e-06
1.22857e-06
1.22714e-06
1.22706e-06
1.22701e-06
1.22711e-06
1.22851e-06
1.22867e-06
1.22857e-06
1.22668e-06
1.22429e-06
1.2243e-06
1.2243e-06
1.2243e-06
1.22677e-06
1.22737e-06
1.22714e-06
1.2243e-06
1.22429e-06
1.2243e-06
1.2243e-06
1.2243e-06
1.22429e-06
1.2273e-06
1.22878e-06
1.2288e-06
1.22705e-06
1.22429e-06
1.22429e-06
1.2243e-06
1.2243e-06
1.2243e-06
1.2243e-06
1.22726e-06
1.22856e-06
1.22869e-06
1.22701e-06
1.22429e-06
1.22429e-06
1.22429e-06
1.2243e-06
1.2243e-06
1.2243e-06
1.22723e-06
1.22748e-06
1.22711e-06
1.22429e-06
1.22429e-06
1.22429e-06
1.2243e-06
1.2243e-06
1.2243e-06
1.22728e-06
1.22874e-06
1.22851e-06
1.22677e-06
1.22429e-06
1.22429e-06
1.2243e-06
1.22429e-06
1.22692e-06
1.22735e-06
1.22879e-06
1.22867e-06
1.22736e-06
1.22729e-06
1.22726e-06
1.22723e-06
1.22728e-06
1.22736e-06
1.2286e-06
1.22878e-06
1.22856e-06
1.22748e-06
1.22874e-06
1.22879e-06
1.21416e-06
1.21405e-06
1.21394e-06
1.2125e-06
1.21241e-06
1.21237e-06
1.21247e-06
1.21388e-06
1.21404e-06
1.21394e-06
1.21204e-06
1.20966e-06
1.20966e-06
1.20966e-06
1.20966e-06
1.21213e-06
1.21273e-06
1.2125e-06
1.20966e-06
1.20966e-06
1.20966e-06
1.20966e-06
1.20966e-06
1.20966e-06
1.21266e-06
1.21414e-06
1.21416e-06
1.21242e-06
1.20966e-06
1.20966e-06
1.20966e-06
1.20966e-06
1.20966e-06
1.20966e-06
1.21262e-06
1.21392e-06
1.21405e-06
1.21238e-06
1.20966e-06
1.20966e-06
1.20966e-06
1.20966e-06
1.20966e-06
1.20966e-06
1.21259e-06
1.21284e-06
1.21248e-06
1.20966e-06
1.20966e-06
1.20966e-06
1.20966e-06
1.20966e-06
1.20966e-06
1.21264e-06
1.2141e-06
1.21388e-06
1.21214e-06
1.20966e-06
1.20966e-06
1.20966e-06
1.20966e-06
1.21228e-06
1.21272e-06
1.21416e-06
1.21404e-06
1.21274e-06
1.21266e-06
1.21262e-06
1.21259e-06
1.21265e-06
1.21272e-06
1.21396e-06
1.21415e-06
1.21393e-06
1.21284e-06
1.2141e-06
1.21416e-06
1.19952e-06
1.19941e-06
1.1993e-06
1.19787e-06
1.19778e-06
1.19773e-06
1.19783e-06
1.19923e-06
1.1994e-06
1.1993e-06
1.1974e-06
1.19502e-06
1.19502e-06
1.19502e-06
1.19502e-06
1.19749e-06
1.19809e-06
1.19787e-06
1.19502e-06
1.19502e-06
1.19502e-06
1.19502e-06
1.19502e-06
1.19501e-06
1.19802e-06
1.1995e-06
1.19952e-06
1.19777e-06
1.19502e-06
1.19502e-06
1.19502e-06
1.19502e-06
1.19502e-06
1.19502e-06
1.19798e-06
1.19928e-06
1.19941e-06
1.19773e-06
1.19502e-06
1.19502e-06
1.19502e-06
1.19502e-06
1.19502e-06
1.19502e-06
1.19796e-06
1.1982e-06
1.19783e-06
1.19502e-06
1.19502e-06
1.19501e-06
1.19502e-06
1.19502e-06
1.19502e-06
1.198e-06
1.19946e-06
1.19923e-06
1.19749e-06
1.19501e-06
1.19501e-06
1.19502e-06
1.19502e-06
1.19764e-06
1.19808e-06
1.19952e-06
1.1994e-06
1.19809e-06
1.19801e-06
1.19798e-06
1.19796e-06
1.19801e-06
1.19808e-06
1.19932e-06
1.1995e-06
1.19928e-06
1.1982e-06
1.19946e-06
1.19952e-06
1.18488e-06
1.18477e-06
1.18465e-06
1.18322e-06
1.18313e-06
1.18309e-06
1.18319e-06
1.18459e-06
1.18476e-06
1.18465e-06
1.18275e-06
1.18037e-06
1.18037e-06
1.18037e-06
1.18037e-06
1.18285e-06
1.18345e-06
1.18322e-06
1.18037e-06
1.18037e-06
1.18038e-06
1.18038e-06
1.18037e-06
1.18037e-06
1.18338e-06
1.18486e-06
1.18488e-06
1.18313e-06
1.18037e-06
1.18037e-06
1.18037e-06
1.18038e-06
1.18037e-06
1.18038e-06
1.18334e-06
1.18464e-06
1.18477e-06
1.18309e-06
1.18037e-06
1.18037e-06
1.18037e-06
1.18038e-06
1.18037e-06
1.18038e-06
1.18331e-06
1.18356e-06
1.18319e-06
1.18037e-06
1.18038e-06
1.18038e-06
1.18037e-06
1.18038e-06
1.18038e-06
1.18336e-06
1.18482e-06
1.18459e-06
1.18285e-06
1.18038e-06
1.18038e-06
1.18038e-06
1.18038e-06
1.183e-06
1.18344e-06
1.18487e-06
1.18476e-06
1.18345e-06
1.18337e-06
1.18334e-06
1.18331e-06
1.18336e-06
1.18344e-06
1.18468e-06
1.18486e-06
1.18464e-06
1.18356e-06
1.18482e-06
1.18488e-06
1.17024e-06
1.17013e-06
1.17002e-06
1.16858e-06
1.1685e-06
1.16845e-06
1.16855e-06
1.16995e-06
1.17012e-06
1.17001e-06
1.16812e-06
1.16573e-06
1.16573e-06
1.16573e-06
1.16573e-06
1.16821e-06
1.16881e-06
1.16858e-06
1.16573e-06
1.16573e-06
1.16573e-06
1.16573e-06
1.16573e-06
1.16573e-06
1.16874e-06
1.17022e-06
1.17024e-06
1.16849e-06
1.16573e-06
1.16573e-06
1.16573e-06
1.16573e-06
1.16573e-06
1.16573e-06
1.1687e-06
1.17e-06
1.17013e-06
1.16845e-06
1.16573e-06
1.16573e-06
1.16573e-06
1.16573e-06
1.16573e-06
1.16573e-06
1.16867e-06
1.16892e-06
1.16855e-06
1.16573e-06
1.16573e-06
1.16573e-06
1.16573e-06
1.16573e-06
1.16573e-06
1.16872e-06
1.17018e-06
1.16995e-06
1.16821e-06
1.16573e-06
1.16573e-06
1.16573e-06
1.16573e-06
1.16835e-06
1.16879e-06
1.17023e-06
1.17012e-06
1.16881e-06
1.16873e-06
1.16869e-06
1.16867e-06
1.16872e-06
1.16879e-06
1.17004e-06
1.17022e-06
1.17e-06
1.16892e-06
1.17018e-06
1.17023e-06
1.1556e-06
1.15549e-06
1.15538e-06
1.15395e-06
1.15386e-06
1.15382e-06
1.15392e-06
1.15532e-06
1.15548e-06
1.15538e-06
1.15349e-06
1.1511e-06
1.1511e-06
1.1511e-06
1.1511e-06
1.15358e-06
1.15418e-06
1.15395e-06
1.1511e-06
1.15111e-06
1.15111e-06
1.15111e-06
1.1511e-06
1.1511e-06
1.1541e-06
1.15559e-06
1.1556e-06
1.15386e-06
1.1511e-06
1.15111e-06
1.15111e-06
1.15111e-06
1.15111e-06
1.1511e-06
1.15407e-06
1.15537e-06
1.15549e-06
1.15382e-06
1.1511e-06
1.15111e-06
1.15111e-06
1.15111e-06
1.15111e-06
1.1511e-06
1.15404e-06
1.15428e-06
1.15392e-06
1.1511e-06
1.1511e-06
1.1511e-06
1.15111e-06
1.1511e-06
1.1511e-06
1.15409e-06
1.15554e-06
1.15531e-06
1.15357e-06
1.1511e-06
1.1511e-06
1.15111e-06
1.1511e-06
1.15372e-06
1.15416e-06
1.1556e-06
1.15548e-06
1.15417e-06
1.1541e-06
1.15406e-06
1.15404e-06
1.15409e-06
1.15416e-06
1.15541e-06
1.15559e-06
1.15537e-06
1.15428e-06
1.15555e-06
1.1556e-06
1.14096e-06
1.14085e-06
1.14074e-06
1.13931e-06
1.13922e-06
1.13918e-06
1.13928e-06
1.14068e-06
1.14084e-06
1.14074e-06
1.13884e-06
1.13646e-06
1.13646e-06
1.13646e-06
1.13646e-06
1.13894e-06
1.13953e-06
1.13931e-06
1.13646e-06
1.13646e-06
1.13646e-06
1.13646e-06
1.13646e-06
1.13646e-06
1.13946e-06
1.14095e-06
1.14096e-06
1.13922e-06
1.13646e-06
1.13646e-06
1.13646e-06
1.13646e-06
1.13646e-06
1.13646e-06
1.13942e-06
1.14073e-06
1.14086e-06
1.13918e-06
1.13646e-06
1.13646e-06
1.13646e-06
1.13646e-06
1.13646e-06
1.13646e-06
1.1394e-06
1.13964e-06
1.13928e-06
1.13646e-06
1.13646e-06
1.13646e-06
1.13646e-06
1.13646e-06
1.13646e-06
1.13945e-06
1.1409e-06
1.14068e-06
1.13894e-06
1.13646e-06
1.13646e-06
1.13646e-06
1.13646e-06
1.13908e-06
1.13952e-06
1.14096e-06
1.14085e-06
1.13954e-06
1.13946e-06
1.13943e-06
1.1394e-06
1.13945e-06
1.13952e-06
1.14077e-06
1.14095e-06
1.14073e-06
1.13964e-06
1.14091e-06
1.14096e-06
1.12633e-06
1.12622e-06
1.1261e-06
1.12467e-06
1.12458e-06
1.12454e-06
1.12464e-06
1.12604e-06
1.1262e-06
1.1261e-06
1.12421e-06
1.12182e-06
1.12182e-06
1.12182e-06
1.12182e-06
1.1243e-06
1.1249e-06
1.12467e-06
1.12182e-06
1.12182e-06
1.12182e-06
1.12182e-06
1.12182e-06
1.12182e-06
1.12482e-06
1.12631e-06
1.12633e-06
1.12458e-06
1.12182e-06
1.12182e-06
1.12182e-06
1.12182e-06
1.12182e-06
1.12182e-06
1.12478e-06
1.12609e-06
1.12622e-06
1.12454e-06
1.12182e-06
1.12182e-06
1.12182e-06
1.12182e-06
1.12182e-06
1.12182e-06
1.12476e-06
1.125e-06
1.12464e-06
1.12182e-06
1.12182e-06
1.12182e-06
1.12182e-06
1.12182e-06
1.12182e-06
1.12481e-06
1.12627e-06
1.12604e-06
1.1243e-06
1.12182e-06
1.12182e-06
1.12182e-06
1.12182e-06
1.12444e-06
1.12488e-06
1.12632e-06
1.1262e-06
1.12489e-06
1.12482e-06
1.12478e-06
1.12476e-06
1.12481e-06
1.12489e-06
1.12613e-06
1.12631e-06
1.12609e-06
1.125e-06
1.12627e-06
1.12632e-06
1.11169e-06
1.11158e-06
1.11147e-06
1.11004e-06
1.10995e-06
1.10991e-06
1.11001e-06
1.11141e-06
1.11157e-06
1.11147e-06
1.10957e-06
1.10719e-06
1.10719e-06
1.10719e-06
1.10719e-06
1.10966e-06
1.11026e-06
1.11004e-06
1.10719e-06
1.10719e-06
1.10719e-06
1.10719e-06
1.10719e-06
1.10719e-06
1.11019e-06
1.11167e-06
1.11169e-06
1.10995e-06
1.10719e-06
1.10719e-06
1.10719e-06
1.10719e-06
1.10719e-06
1.10719e-06
1.11015e-06
1.11145e-06
1.11158e-06
1.10991e-06
1.10719e-06
1.10719e-06
1.10719e-06
1.10719e-06
1.10719e-06
1.10719e-06
1.11013e-06
1.11037e-06
1.11001e-06
1.10719e-06
1.10719e-06
1.10719e-06
1.10719e-06
1.10719e-06
1.10719e-06
1.11017e-06
1.11163e-06
1.1114e-06
1.10966e-06
1.10719e-06
1.10719e-06
1.10719e-06
1.10719e-06
1.10981e-06
1.11025e-06
1.11169e-06
1.11157e-06
1.11026e-06
1.11019e-06
1.11015e-06
1.11013e-06
1.11018e-06
1.11025e-06
1.1115e-06
1.11167e-06
1.11145e-06
1.11037e-06
1.11163e-06
1.11169e-06
1.09705e-06
1.09694e-06
1.09683e-06
1.0954e-06
1.09531e-06
1.09527e-06
1.09537e-06
1.09677e-06
1.09693e-06
1.09683e-06
1.09494e-06
1.09255e-06
1.09255e-06
1.09255e-06
1.09255e-06
1.09503e-06
1.09563e-06
1.0954e-06
1.09255e-06
1.09255e-06
1.09255e-06
1.09255e-06
1.09255e-06
1.09255e-06
1.09555e-06
1.09704e-06
1.09706e-06
1.09531e-06
1.09255e-06
1.09256e-06
1.09256e-06
1.09256e-06
1.09255e-06
1.09255e-06
1.09551e-06
1.09682e-06
1.09695e-06
1.09527e-06
1.09255e-06
1.09255e-06
1.09255e-06
1.09255e-06
1.09255e-06
1.09255e-06
1.09549e-06
1.09573e-06
1.09537e-06
1.09255e-06
1.09255e-06
1.09256e-06
1.09255e-06
1.09255e-06
1.09255e-06
1.09554e-06
1.097e-06
1.09677e-06
1.09503e-06
1.09255e-06
1.09255e-06
1.09255e-06
1.09255e-06
1.09518e-06
1.09562e-06
1.09705e-06
1.09693e-06
1.09562e-06
1.09555e-06
1.09551e-06
1.09549e-06
1.09554e-06
1.09561e-06
1.09686e-06
1.09704e-06
1.09682e-06
1.09573e-06
1.09699e-06
1.09705e-06
1.08241e-06
1.08231e-06
1.08219e-06
1.08076e-06
1.08067e-06
1.08063e-06
1.08073e-06
1.08213e-06
1.08229e-06
1.08219e-06
1.08029e-06
1.07791e-06
1.07791e-06
1.07791e-06
1.07791e-06
1.08039e-06
1.08099e-06
1.08076e-06
1.07791e-06
1.07791e-06
1.07791e-06
1.07791e-06
1.07791e-06
1.07791e-06
1.08091e-06
1.0824e-06
1.08241e-06
1.08067e-06
1.0779e-06
1.0779e-06
1.07791e-06
1.07791e-06
1.07791e-06
1.07791e-06
1.08087e-06
1.08218e-06
1.0823e-06
1.08062e-06
1.0779e-06
1.0779e-06
1.0779e-06
1.0779e-06
1.07791e-06
1.07791e-06
1.08085e-06
1.08109e-06
1.08073e-06
1.0779e-06
1.0779e-06
1.0779e-06
1.0779e-06
1.07791e-06
1.07791e-06
1.0809e-06
1.08236e-06
1.08213e-06
1.08038e-06
1.07791e-06
1.07791e-06
1.07791e-06
1.07791e-06
1.08054e-06
1.08098e-06
1.08241e-06
1.08229e-06
1.08098e-06
1.08091e-06
1.08087e-06
1.08085e-06
1.0809e-06
1.08097e-06
1.08222e-06
1.0824e-06
1.08218e-06
1.08109e-06
1.08235e-06
1.08241e-06
1.06778e-06
1.06767e-06
1.06755e-06
1.06612e-06
1.06604e-06
1.06599e-06
1.06609e-06
1.06749e-06
1.06766e-06
1.06755e-06
1.06566e-06
1.06327e-06
1.06327e-06
1.06327e-06
1.06327e-06
1.06575e-06
1.06635e-06
1.06612e-06
1.06327e-06
1.06327e-06
1.06327e-06
1.06327e-06
1.06327e-06
1.06327e-06
1.06628e-06
1.06776e-06
1.06778e-06
1.06604e-06
1.06327e-06
1.06327e-06
1.06327e-06
1.06327e-06
1.06327e-06
1.06327e-06
1.06624e-06
1.06754e-06
1.06767e-06
1.06599e-06
1.06328e-06
1.06327e-06
1.06327e-06
1.06328e-06
1.06327e-06
1.06327e-06
1.06621e-06
1.06646e-06
1.06609e-06
1.06328e-06
1.06327e-06
1.06327e-06
1.06327e-06
1.06327e-06
1.06327e-06
1.06626e-06
1.06772e-06
1.06749e-06
1.06575e-06
1.06327e-06
1.06327e-06
1.06327e-06
1.06327e-06
1.06589e-06
1.06634e-06
1.06777e-06
1.06766e-06
1.06635e-06
1.06628e-06
1.06624e-06
1.06621e-06
1.06626e-06
1.06634e-06
1.06758e-06
1.06776e-06
1.06754e-06
1.06646e-06
1.06772e-06
1.06777e-06
1.05314e-06
1.05303e-06
1.05292e-06
1.05149e-06
1.0514e-06
1.05136e-06
1.05146e-06
1.05286e-06
1.05302e-06
1.05292e-06
1.05102e-06
1.04864e-06
1.04864e-06
1.04864e-06
1.04864e-06
1.05112e-06
1.05172e-06
1.05149e-06
1.04864e-06
1.04864e-06
1.04864e-06
1.04864e-06
1.04864e-06
1.04864e-06
1.05164e-06
1.05313e-06
1.05314e-06
1.0514e-06
1.04864e-06
1.04864e-06
1.04864e-06
1.04864e-06
1.04864e-06
1.04864e-06
1.0516e-06
1.0529e-06
1.05304e-06
1.05136e-06
1.04864e-06
1.04864e-06
1.04864e-06
1.04864e-06
1.04864e-06
1.04864e-06
1.05158e-06
1.05182e-06
1.05146e-06
1.04864e-06
1.04864e-06
1.04864e-06
1.04864e-06
1.04864e-06
1.04864e-06
1.05163e-06
1.05308e-06
1.05286e-06
1.05112e-06
1.04864e-06
1.04864e-06
1.04864e-06
1.04864e-06
1.05126e-06
1.0517e-06
1.05314e-06
1.05302e-06
1.05171e-06
1.05164e-06
1.05161e-06
1.05158e-06
1.05163e-06
1.0517e-06
1.05295e-06
1.05312e-06
1.05291e-06
1.05183e-06
1.05309e-06
1.05314e-06
1.03851e-06
1.0384e-06
1.03829e-06
1.03686e-06
1.03677e-06
1.03672e-06
1.03682e-06
1.03822e-06
1.03839e-06
1.03829e-06
1.03639e-06
1.03401e-06
1.03401e-06
1.03401e-06
1.03401e-06
1.03648e-06
1.03708e-06
1.03686e-06
1.03401e-06
1.03401e-06
1.03401e-06
1.03401e-06
1.03401e-06
1.03401e-06
1.03701e-06
1.03849e-06
1.03851e-06
1.03677e-06
1.03401e-06
1.03401e-06
1.03401e-06
1.03401e-06
1.03401e-06
1.03401e-06
1.03697e-06
1.03827e-06
1.0384e-06
1.03672e-06
1.03401e-06
1.03401e-06
1.03401e-06
1.03401e-06
1.03401e-06
1.03401e-06
1.03694e-06
1.03719e-06
1.03682e-06
1.03401e-06
1.03401e-06
1.03401e-06
1.03401e-06
1.03401e-06
1.03401e-06
1.03699e-06
1.03845e-06
1.03822e-06
1.03648e-06
1.03401e-06
1.03401e-06
1.03401e-06
1.03401e-06
1.03663e-06
1.03707e-06
1.03851e-06
1.03839e-06
1.03708e-06
1.037e-06
1.03697e-06
1.03694e-06
1.03699e-06
1.03707e-06
1.03831e-06
1.03849e-06
1.03827e-06
1.03719e-06
1.03845e-06
1.03851e-06
1.02387e-06
1.02376e-06
1.02365e-06
1.02221e-06
1.02212e-06
1.02208e-06
1.02218e-06
1.02358e-06
1.02375e-06
1.02365e-06
1.02175e-06
1.01936e-06
1.01936e-06
1.01936e-06
1.01936e-06
1.02184e-06
1.02244e-06
1.02221e-06
1.01936e-06
1.01936e-06
1.01936e-06
1.01936e-06
1.01936e-06
1.01936e-06
1.02236e-06
1.02385e-06
1.02387e-06
1.02212e-06
1.01936e-06
1.01936e-06
1.01936e-06
1.01936e-06
1.01936e-06
1.01936e-06
1.02233e-06
1.02363e-06
1.02376e-06
1.02208e-06
1.01936e-06
1.01936e-06
1.01936e-06
1.01936e-06
1.01936e-06
1.01936e-06
1.0223e-06
1.02255e-06
1.02218e-06
1.01936e-06
1.01936e-06
1.01936e-06
1.01936e-06
1.01936e-06
1.01936e-06
1.02235e-06
1.02381e-06
1.02358e-06
1.02184e-06
1.01936e-06
1.01936e-06
1.01936e-06
1.01936e-06
1.02198e-06
1.02242e-06
1.02386e-06
1.02375e-06
1.02244e-06
1.02236e-06
1.02232e-06
1.0223e-06
1.02235e-06
1.02242e-06
1.02367e-06
1.02385e-06
1.02363e-06
1.02255e-06
1.02381e-06
1.02386e-06
1.00922e-06
1.00911e-06
1.009e-06
1.00757e-06
1.00748e-06
1.00744e-06
1.00754e-06
1.00894e-06
1.0091e-06
1.009e-06
1.00711e-06
1.00472e-06
1.00471e-06
1.00472e-06
1.00472e-06
1.0072e-06
1.0078e-06
1.00757e-06
1.00472e-06
1.00472e-06
1.00471e-06
1.00472e-06
1.00472e-06
1.00472e-06
1.00772e-06
1.00921e-06
1.00922e-06
1.00748e-06
1.00472e-06
1.00472e-06
1.00472e-06
1.00472e-06
1.00472e-06
1.00472e-06
1.00768e-06
1.00899e-06
1.00912e-06
1.00744e-06
1.00472e-06
1.00472e-06
1.00472e-06
1.00472e-06
1.00472e-06
1.00472e-06
1.00766e-06
1.0079e-06
1.00754e-06
1.00472e-06
1.00472e-06
1.00472e-06
1.00472e-06
1.00472e-06
1.00472e-06
1.00771e-06
1.00917e-06
1.00894e-06
1.0072e-06
1.00472e-06
1.00472e-06
1.00472e-06
1.00472e-06
1.00734e-06
1.00778e-06
1.00922e-06
1.00911e-06
1.0078e-06
1.00772e-06
1.00768e-06
1.00766e-06
1.00771e-06
1.00779e-06
1.00903e-06
1.00921e-06
1.00899e-06
1.00791e-06
1.00917e-06
1.00922e-06
9.9459e-07
9.94481e-07
9.94366e-07
9.92937e-07
9.92851e-07
9.92805e-07
9.92904e-07
9.94302e-07
9.9447e-07
9.94366e-07
9.92473e-07
9.90089e-07
9.90089e-07
9.90087e-07
9.90085e-07
9.92562e-07
9.93164e-07
9.92935e-07
9.90088e-07
9.9009e-07
9.90088e-07
9.90087e-07
9.90085e-07
9.90084e-07
9.93086e-07
9.94571e-07
9.94589e-07
9.92845e-07
9.90088e-07
9.90089e-07
9.90087e-07
9.90086e-07
9.90084e-07
9.90083e-07
9.93048e-07
9.94351e-07
9.94479e-07
9.92802e-07
9.90087e-07
9.90089e-07
9.90085e-07
9.90085e-07
9.90083e-07
9.90083e-07
9.93021e-07
9.93266e-07
9.92903e-07
9.90085e-07
9.90087e-07
9.90085e-07
9.90084e-07
9.90083e-07
9.90083e-07
9.9307e-07
9.94528e-07
9.94302e-07
9.92561e-07
9.90085e-07
9.90084e-07
9.90084e-07
9.90083e-07
9.92703e-07
9.93144e-07
9.94582e-07
9.94467e-07
9.93158e-07
9.93086e-07
9.93047e-07
9.93023e-07
9.93073e-07
9.93147e-07
9.94391e-07
9.94571e-07
9.94351e-07
9.93268e-07
9.9453e-07
9.94585e-07
9.7995e-07
9.79842e-07
9.79725e-07
9.78294e-07
9.78207e-07
9.78163e-07
9.78265e-07
9.79663e-07
9.7983e-07
9.79725e-07
9.77829e-07
9.75442e-07
9.75444e-07
9.75445e-07
9.75448e-07
9.77924e-07
9.78526e-07
9.78294e-07
9.75443e-07
9.75443e-07
9.75445e-07
9.75448e-07
9.75448e-07
9.75448e-07
9.78449e-07
9.79933e-07
9.79947e-07
9.78204e-07
9.75444e-07
9.75443e-07
9.75447e-07
9.75449e-07
9.75451e-07
9.7545e-07
9.78412e-07
9.79714e-07
9.79835e-07
9.78163e-07
9.75445e-07
9.75444e-07
9.75446e-07
9.75447e-07
9.75448e-07
9.75448e-07
9.78386e-07
9.7863e-07
9.78263e-07
9.75446e-07
9.75444e-07
9.75446e-07
9.75448e-07
9.75448e-07
9.75449e-07
9.78435e-07
9.79892e-07
9.79662e-07
9.77922e-07
9.75444e-07
9.75446e-07
9.75448e-07
9.75449e-07
9.78069e-07
9.78509e-07
9.79947e-07
9.79827e-07
9.78517e-07
9.78442e-07
9.78407e-07
9.78385e-07
9.78436e-07
9.78511e-07
9.79753e-07
9.79931e-07
9.79712e-07
9.7863e-07
9.79892e-07
9.79947e-07
9.65314e-07
9.65204e-07
9.65091e-07
9.63661e-07
9.63571e-07
9.63528e-07
9.63628e-07
9.65026e-07
9.6519e-07
9.65091e-07
9.63197e-07
9.60814e-07
9.60814e-07
9.60813e-07
9.6081e-07
9.63285e-07
9.63884e-07
9.6366e-07
9.60814e-07
9.60814e-07
9.60813e-07
9.60811e-07
9.6081e-07
9.60809e-07
9.63811e-07
9.65294e-07
9.65314e-07
9.63571e-07
9.60814e-07
9.60815e-07
9.60813e-07
9.60809e-07
9.60809e-07
9.60809e-07
9.63772e-07
9.65075e-07
9.65205e-07
9.6353e-07
9.60813e-07
9.60814e-07
9.60814e-07
9.60811e-07
9.60811e-07
9.60809e-07
9.63748e-07
9.63992e-07
9.63632e-07
9.60812e-07
9.60813e-07
9.60814e-07
9.60809e-07
9.60812e-07
9.60809e-07
9.63797e-07
9.65255e-07
9.6503e-07
9.63289e-07
9.60812e-07
9.60814e-07
9.60809e-07
9.6081e-07
9.63429e-07
9.63869e-07
9.65309e-07
9.65194e-07
9.63885e-07
9.6381e-07
9.63775e-07
9.63748e-07
9.63797e-07
9.6387e-07
9.65116e-07
9.65296e-07
9.65077e-07
9.63993e-07
9.65253e-07
9.65308e-07
9.50672e-07
9.50564e-07
9.5045e-07
9.49017e-07
9.48927e-07
9.48886e-07
9.48988e-07
9.50388e-07
9.50553e-07
9.50451e-07
9.48555e-07
9.46168e-07
9.46168e-07
9.4617e-07
9.4617e-07
9.48649e-07
9.49247e-07
9.49019e-07
9.46169e-07
9.4617e-07
9.46171e-07
9.46171e-07
9.46172e-07
9.46172e-07
9.49174e-07
9.50658e-07
9.50675e-07
9.4893e-07
9.46168e-07
9.46167e-07
9.46169e-07
9.46172e-07
9.46172e-07
9.46172e-07
9.49136e-07
9.50439e-07
9.50565e-07
9.48887e-07
9.46168e-07
9.46168e-07
9.46169e-07
9.46171e-07
9.46172e-07
9.46172e-07
9.4911e-07
9.49355e-07
9.48988e-07
9.46169e-07
9.46169e-07
9.46169e-07
9.46172e-07
9.46169e-07
9.4617e-07
9.49158e-07
9.50617e-07
9.50388e-07
9.48645e-07
9.46169e-07
9.46167e-07
9.4617e-07
9.4617e-07
9.48791e-07
9.49231e-07
9.50671e-07
9.50552e-07
9.49243e-07
9.49168e-07
9.49132e-07
9.49108e-07
9.49157e-07
9.49231e-07
9.50477e-07
9.50656e-07
9.50437e-07
9.49352e-07
9.50614e-07
9.50669e-07
9.36035e-07
9.35926e-07
9.35812e-07
9.34381e-07
9.34292e-07
9.34247e-07
9.34348e-07
9.35748e-07
9.35913e-07
9.3581e-07
9.33916e-07
9.31529e-07
9.31528e-07
9.31527e-07
9.31528e-07
9.34007e-07
9.34606e-07
9.34379e-07
9.31528e-07
9.31528e-07
9.31525e-07
9.31525e-07
9.31526e-07
9.31528e-07
9.34531e-07
9.36015e-07
9.36035e-07
9.3429e-07
9.31529e-07
9.31529e-07
9.31526e-07
9.31525e-07
9.31525e-07
9.31527e-07
9.3449e-07
9.35794e-07
9.35927e-07
9.3425e-07
9.3153e-07
9.31527e-07
9.31526e-07
9.31525e-07
9.31526e-07
9.31527e-07
9.34465e-07
9.34711e-07
9.34352e-07
9.31531e-07
9.31529e-07
9.31528e-07
9.31527e-07
9.31529e-07
9.31528e-07
9.34516e-07
9.35974e-07
9.35749e-07
9.34007e-07
9.3153e-07
9.31531e-07
9.31529e-07
9.31528e-07
9.34151e-07
9.34591e-07
9.36029e-07
9.35914e-07
9.34605e-07