/*--------------------------------*- C++ -*----------------------------------*\
| =========                 |                                                 |
| \\      /  F ield         | OpenFOAM: The Open Source CFD Toolbox           |
|  \\    /   O peration     | Version:  v2012                                 |
|   \\  /    A nd           | Website:  www.openfoam.com                      |
|    \\/     M anipulation  |                                                 |
\*---------------------------------------------------------------------------*/
FoamFile
{
    version     2.0;
    format      ascii;
    class       volScalarField;
    location    "15";
    object      p;
}
// * * * * * * * * * * * * * * * * * * * * * * * * * * * * * * * * * * * * * //

dimensions      [0 2 -2 0 0 0 0];


internalField   nonuniform List<scalar> 
244288
(
1.47444e-06
1.47456e-06
1.47452e-06
1.47443e-06
1.47438e-06
1.47445e-06
1.47453e-06
1.47455e-06
1.47459e-06
1.47436e-06
1.47411e-06
1.47402e-06
1.47414e-06
1.4744e-06
1.47459e-06
1.47452e-06
1.47436e-06
1.47396e-06
1.47362e-06
1.4735e-06
1.47365e-06
1.47401e-06
1.47441e-06
1.47451e-06
1.47443e-06
1.47411e-06
1.47362e-06
1.47323e-06
1.4731e-06
1.47327e-06
1.47368e-06
1.47417e-06
1.47444e-06
1.47444e-06
1.47438e-06
1.47402e-06
1.4735e-06
1.4731e-06
1.47297e-06
1.47314e-06
1.47356e-06
1.47408e-06
1.4744e-06
1.47445e-06
1.47414e-06
1.47365e-06
1.47327e-06
1.47314e-06
1.4733e-06
1.47371e-06
1.47419e-06
1.47446e-06
1.47453e-06
1.4744e-06
1.47401e-06
1.47368e-06
1.47356e-06
1.47371e-06
1.47406e-06
1.47444e-06
1.47452e-06
1.47459e-06
1.47441e-06
1.47417e-06
1.47408e-06
1.47419e-06
1.47444e-06
1.4746e-06
1.47451e-06
1.47444e-06
1.4744e-06
1.47446e-06
1.47452e-06
1.45227e-06
1.45191e-06
1.45175e-06
1.45033e-06
1.45024e-06
1.45024e-06
1.45025e-06
1.45169e-06
1.4518e-06
1.45174e-06
1.44988e-06
1.44747e-06
1.44747e-06
1.44747e-06
1.44747e-06
1.44994e-06
1.45044e-06
1.45033e-06
1.44747e-06
1.44743e-06
1.44746e-06
1.44746e-06
1.44743e-06
1.44747e-06
1.45036e-06
1.45195e-06
1.45227e-06
1.45024e-06
1.44747e-06
1.44746e-06
1.44751e-06
1.44751e-06
1.44746e-06
1.44747e-06
1.4503e-06
1.45169e-06
1.45191e-06
1.45024e-06
1.44747e-06
1.44746e-06
1.44751e-06
1.44751e-06
1.44746e-06
1.44747e-06
1.45026e-06
1.45055e-06
1.45026e-06
1.44747e-06
1.44743e-06
1.44746e-06
1.44746e-06
1.44743e-06
1.44747e-06
1.45033e-06
1.45184e-06
1.45169e-06
1.44994e-06
1.44747e-06
1.44747e-06
1.44747e-06
1.44747e-06
1.44992e-06
1.45045e-06
1.45197e-06
1.4518e-06
1.45044e-06
1.45036e-06
1.4503e-06
1.45026e-06
1.45033e-06
1.45045e-06
1.45166e-06
1.45195e-06
1.45168e-06
1.45055e-06
1.45184e-06
1.45197e-06
1.43677e-06
1.43664e-06
1.43655e-06
1.43503e-06
1.43494e-06
1.43491e-06
1.43499e-06
1.43646e-06
1.43664e-06
1.43655e-06
1.43457e-06
1.43202e-06
1.43201e-06
1.43201e-06
1.43202e-06
1.43463e-06
1.43522e-06
1.43503e-06
1.43202e-06
1.43199e-06
1.432e-06
1.432e-06
1.43199e-06
1.43202e-06
1.43511e-06
1.43672e-06
1.43676e-06
1.43494e-06
1.43201e-06
1.432e-06
1.432e-06
1.432e-06
1.432e-06
1.43201e-06
1.43505e-06
1.43647e-06
1.43664e-06
1.43491e-06
1.43201e-06
1.432e-06
1.432e-06
1.432e-06
1.432e-06
1.43201e-06
1.43502e-06
1.43532e-06
1.43499e-06
1.43202e-06
1.43199e-06
1.432e-06
1.432e-06
1.43199e-06
1.43202e-06
1.43508e-06
1.43664e-06
1.43646e-06
1.43463e-06
1.43202e-06
1.43201e-06
1.43201e-06
1.43202e-06
1.43466e-06
1.43519e-06
1.43674e-06
1.43664e-06
1.43522e-06
1.43511e-06
1.43505e-06
1.43502e-06
1.43508e-06
1.43519e-06
1.43651e-06
1.43672e-06
1.43647e-06
1.43532e-06
1.43664e-06
1.43674e-06
1.42136e-06
1.42123e-06
1.42113e-06
1.4196e-06
1.41951e-06
1.41947e-06
1.41957e-06
1.42104e-06
1.42123e-06
1.42113e-06
1.41914e-06
1.41657e-06
1.41657e-06
1.41657e-06
1.41657e-06
1.41919e-06
1.4198e-06
1.4196e-06
1.41657e-06
1.41656e-06
1.41656e-06
1.41656e-06
1.41656e-06
1.41657e-06
1.4197e-06
1.42131e-06
1.42136e-06
1.41951e-06
1.41657e-06
1.41656e-06
1.41657e-06
1.41657e-06
1.41656e-06
1.41657e-06
1.41964e-06
1.42106e-06
1.42123e-06
1.41947e-06
1.41657e-06
1.41656e-06
1.41657e-06
1.41657e-06
1.41656e-06
1.41657e-06
1.41961e-06
1.41991e-06
1.41957e-06
1.41657e-06
1.41656e-06
1.41656e-06
1.41656e-06
1.41656e-06
1.41657e-06
1.41967e-06
1.42123e-06
1.42104e-06
1.41919e-06
1.41657e-06
1.41657e-06
1.41657e-06
1.41657e-06
1.41926e-06
1.41978e-06
1.42133e-06
1.42123e-06
1.4198e-06
1.4197e-06
1.41964e-06
1.41961e-06
1.41967e-06
1.41978e-06
1.4211e-06
1.42131e-06
1.42106e-06
1.41991e-06
1.42123e-06
1.42133e-06
1.40593e-06
1.4058e-06
1.4057e-06
1.40417e-06
1.40408e-06
1.40403e-06
1.40413e-06
1.40561e-06
1.4058e-06
1.4057e-06
1.4037e-06
1.40113e-06
1.40113e-06
1.40113e-06
1.40113e-06
1.40375e-06
1.40437e-06
1.40417e-06
1.40113e-06
1.40113e-06
1.40113e-06
1.40113e-06
1.40113e-06
1.40113e-06
1.40427e-06
1.40588e-06
1.40593e-06
1.40408e-06
1.40113e-06
1.40113e-06
1.40113e-06
1.40113e-06
1.40113e-06
1.40113e-06
1.40421e-06
1.40564e-06
1.4058e-06
1.40403e-06
1.40113e-06
1.40113e-06
1.40113e-06
1.40113e-06
1.40113e-06
1.40113e-06
1.40418e-06
1.40449e-06
1.40413e-06
1.40113e-06
1.40113e-06
1.40113e-06
1.40113e-06
1.40113e-06
1.40113e-06
1.40424e-06
1.40581e-06
1.40561e-06
1.40375e-06
1.40113e-06
1.40113e-06
1.40113e-06
1.40113e-06
1.40383e-06
1.40435e-06
1.4059e-06
1.4058e-06
1.40437e-06
1.40427e-06
1.40421e-06
1.40418e-06
1.40424e-06
1.40435e-06
1.40567e-06
1.40588e-06
1.40564e-06
1.40449e-06
1.40581e-06
1.4059e-06
1.3905e-06
1.39037e-06
1.39027e-06
1.38873e-06
1.38864e-06
1.3886e-06
1.3887e-06
1.39018e-06
1.39037e-06
1.39026e-06
1.38826e-06
1.3857e-06
1.3857e-06
1.3857e-06
1.38569e-06
1.38832e-06
1.38894e-06
1.38873e-06
1.3857e-06
1.38569e-06
1.3857e-06
1.3857e-06
1.38569e-06
1.38569e-06
1.38883e-06
1.39044e-06
1.3905e-06
1.38864e-06
1.3857e-06
1.3857e-06
1.3857e-06
1.3857e-06
1.38569e-06
1.3857e-06
1.38878e-06
1.3902e-06
1.39037e-06
1.3886e-06
1.38569e-06
1.38569e-06
1.3857e-06
1.3857e-06
1.38569e-06
1.3857e-06
1.38875e-06
1.38905e-06
1.3887e-06
1.38569e-06
1.38569e-06
1.38569e-06
1.38569e-06
1.38569e-06
1.38569e-06
1.38881e-06
1.39037e-06
1.39018e-06
1.38832e-06
1.38569e-06
1.38569e-06
1.38569e-06
1.38569e-06
1.3884e-06
1.38892e-06
1.39047e-06
1.39037e-06
1.38894e-06
1.38883e-06
1.38878e-06
1.38875e-06
1.38881e-06
1.38892e-06
1.39024e-06
1.39044e-06
1.3902e-06
1.38905e-06
1.39037e-06
1.39047e-06
1.37506e-06
1.37494e-06
1.37483e-06
1.3733e-06
1.37321e-06
1.37317e-06
1.37326e-06
1.37474e-06
1.37493e-06
1.37483e-06
1.37283e-06
1.37026e-06
1.37026e-06
1.37026e-06
1.37026e-06
1.37288e-06
1.3735e-06
1.3733e-06
1.37026e-06
1.37026e-06
1.37026e-06
1.37026e-06
1.37026e-06
1.37026e-06
1.3734e-06
1.37501e-06
1.37506e-06
1.37321e-06
1.37026e-06
1.37026e-06
1.37026e-06
1.37026e-06
1.37026e-06
1.37026e-06
1.37335e-06
1.37477e-06
1.37495e-06
1.37317e-06
1.37026e-06
1.37026e-06
1.37026e-06
1.37026e-06
1.37026e-06
1.37026e-06
1.37332e-06
1.37362e-06
1.37326e-06
1.37026e-06
1.37026e-06
1.37026e-06
1.37026e-06
1.37026e-06
1.37026e-06
1.37338e-06
1.37494e-06
1.37474e-06
1.37288e-06
1.37026e-06
1.37026e-06
1.37026e-06
1.37026e-06
1.37297e-06
1.37348e-06
1.37503e-06
1.37493e-06
1.3735e-06
1.3734e-06
1.37335e-06
1.37332e-06
1.37338e-06
1.37348e-06
1.3748e-06
1.37501e-06
1.37477e-06
1.37362e-06
1.37494e-06
1.37503e-06
1.35963e-06
1.3595e-06
1.3594e-06
1.35786e-06
1.35777e-06
1.35773e-06
1.35783e-06
1.35931e-06
1.3595e-06
1.3594e-06
1.3574e-06
1.35483e-06
1.35483e-06
1.35483e-06
1.35483e-06
1.35745e-06
1.35807e-06
1.35786e-06
1.35483e-06
1.35483e-06
1.35483e-06
1.35483e-06
1.35483e-06
1.35483e-06
1.35797e-06
1.35958e-06
1.35963e-06
1.35777e-06
1.35483e-06
1.35483e-06
1.35483e-06
1.35483e-06
1.35483e-06
1.35483e-06
1.35791e-06
1.35934e-06
1.3595e-06
1.35773e-06
1.35483e-06
1.35483e-06
1.35483e-06
1.35483e-06
1.35483e-06
1.35483e-06
1.35788e-06
1.35819e-06
1.35783e-06
1.35483e-06
1.35483e-06
1.35483e-06
1.35483e-06
1.35483e-06
1.35483e-06
1.35794e-06
1.35951e-06
1.35931e-06
1.35745e-06
1.35483e-06
1.35483e-06
1.35483e-06
1.35483e-06
1.35754e-06
1.35805e-06
1.3596e-06
1.3595e-06
1.35807e-06
1.35797e-06
1.35791e-06
1.35788e-06
1.35794e-06
1.35805e-06
1.35937e-06
1.35958e-06
1.35934e-06
1.35819e-06
1.35951e-06
1.3596e-06
1.3442e-06
1.34407e-06
1.34396e-06
1.34243e-06
1.34234e-06
1.3423e-06
1.3424e-06
1.34388e-06
1.34406e-06
1.34396e-06
1.34196e-06
1.33939e-06
1.33939e-06
1.33939e-06
1.33939e-06
1.34202e-06
1.34264e-06
1.34243e-06
1.33939e-06
1.33939e-06
1.33939e-06
1.33939e-06
1.33939e-06
1.33939e-06
1.34253e-06
1.34414e-06
1.34419e-06
1.34234e-06
1.33939e-06
1.33939e-06
1.33939e-06
1.33939e-06
1.33939e-06
1.33939e-06
1.34248e-06
1.3439e-06
1.34407e-06
1.3423e-06
1.33939e-06
1.33939e-06
1.33939e-06
1.33939e-06
1.33939e-06
1.33939e-06
1.34245e-06
1.34275e-06
1.3424e-06
1.33939e-06
1.33939e-06
1.33939e-06
1.33939e-06
1.33939e-06
1.33939e-06
1.34251e-06
1.34407e-06
1.34388e-06
1.34202e-06
1.33939e-06
1.33939e-06
1.33939e-06
1.33939e-06
1.3421e-06
1.34262e-06
1.34417e-06
1.34407e-06
1.34264e-06
1.34253e-06
1.34248e-06
1.34245e-06
1.34251e-06
1.34262e-06
1.34394e-06
1.34414e-06
1.3439e-06
1.34275e-06
1.34407e-06
1.34417e-06
1.32876e-06
1.32864e-06
1.32853e-06
1.327e-06
1.32691e-06
1.32687e-06
1.32697e-06
1.32844e-06
1.32863e-06
1.32853e-06
1.32653e-06
1.32396e-06
1.32396e-06
1.32396e-06
1.32396e-06
1.32659e-06
1.3272e-06
1.327e-06
1.32396e-06
1.32396e-06
1.32396e-06
1.32396e-06
1.32396e-06
1.32396e-06
1.3271e-06
1.32871e-06
1.32876e-06
1.32691e-06
1.32396e-06
1.32396e-06
1.32396e-06
1.32396e-06
1.32396e-06
1.32396e-06
1.32705e-06
1.32847e-06
1.32864e-06
1.32687e-06
1.32396e-06
1.32396e-06
1.32396e-06
1.32396e-06
1.32396e-06
1.32396e-06
1.32702e-06
1.32732e-06
1.32697e-06
1.32396e-06
1.32396e-06
1.32396e-06
1.32396e-06
1.32396e-06
1.32396e-06
1.32708e-06
1.32864e-06
1.32844e-06
1.32659e-06
1.32396e-06
1.32396e-06
1.32396e-06
1.32396e-06
1.32667e-06
1.32719e-06
1.32873e-06
1.32863e-06
1.32721e-06
1.3271e-06
1.32705e-06
1.32702e-06
1.32708e-06
1.32719e-06
1.32851e-06
1.32871e-06
1.32847e-06
1.32732e-06
1.32864e-06
1.32873e-06
1.31333e-06
1.31321e-06
1.3131e-06
1.31157e-06
1.31148e-06
1.31143e-06
1.31153e-06
1.31301e-06
1.3132e-06
1.3131e-06
1.3111e-06
1.30853e-06
1.30853e-06
1.30853e-06
1.30853e-06
1.31115e-06
1.31177e-06
1.31157e-06
1.30853e-06
1.30853e-06
1.30853e-06
1.30853e-06
1.30853e-06
1.30853e-06
1.31167e-06
1.31328e-06
1.31333e-06
1.31148e-06
1.30853e-06
1.30853e-06
1.30853e-06
1.30853e-06
1.30853e-06
1.30853e-06
1.31162e-06
1.31304e-06
1.3132e-06
1.31143e-06
1.30853e-06
1.30853e-06
1.30853e-06
1.30853e-06
1.30853e-06
1.30853e-06
1.31159e-06
1.31189e-06
1.31153e-06
1.30853e-06
1.30853e-06
1.30853e-06
1.30853e-06
1.30853e-06
1.30853e-06
1.31165e-06
1.31321e-06
1.31301e-06
1.31115e-06
1.30853e-06
1.30853e-06
1.30853e-06
1.30853e-06
1.31124e-06
1.31175e-06
1.3133e-06
1.3132e-06
1.31177e-06
1.31167e-06
1.31162e-06
1.31159e-06
1.31165e-06
1.31175e-06
1.31307e-06
1.31328e-06
1.31304e-06
1.31189e-06
1.31321e-06
1.3133e-06
1.2979e-06
1.29777e-06
1.29767e-06
1.29613e-06
1.29604e-06
1.296e-06
1.2961e-06
1.29758e-06
1.29777e-06
1.29767e-06
1.29566e-06
1.2931e-06
1.2931e-06
1.2931e-06
1.2931e-06
1.29572e-06
1.29634e-06
1.29613e-06
1.2931e-06
1.2931e-06
1.2931e-06
1.2931e-06
1.2931e-06
1.2931e-06
1.29623e-06
1.29784e-06
1.2979e-06
1.29604e-06
1.2931e-06
1.2931e-06
1.2931e-06
1.2931e-06
1.2931e-06
1.2931e-06
1.29618e-06
1.2976e-06
1.29777e-06
1.296e-06
1.2931e-06
1.2931e-06
1.2931e-06
1.2931e-06
1.2931e-06
1.2931e-06
1.29615e-06
1.29646e-06
1.2961e-06
1.2931e-06
1.2931e-06
1.2931e-06
1.2931e-06
1.2931e-06
1.2931e-06
1.29621e-06
1.29778e-06
1.29758e-06
1.29572e-06
1.2931e-06
1.2931e-06
1.2931e-06
1.2931e-06
1.2958e-06
1.29632e-06
1.29787e-06
1.29777e-06
1.29634e-06
1.29623e-06
1.29618e-06
1.29615e-06
1.29621e-06
1.29632e-06
1.29764e-06
1.29784e-06
1.2976e-06
1.29646e-06
1.29778e-06
1.29787e-06
1.28246e-06
1.28234e-06
1.28223e-06
1.2807e-06
1.28061e-06
1.28057e-06
1.28067e-06
1.28215e-06
1.28233e-06
1.28223e-06
1.28023e-06
1.27766e-06
1.27766e-06
1.27766e-06
1.27766e-06
1.28029e-06
1.28091e-06
1.2807e-06
1.27766e-06
1.27766e-06
1.27766e-06
1.27766e-06
1.27766e-06
1.27766e-06
1.2808e-06
1.28241e-06
1.28246e-06
1.28061e-06
1.27766e-06
1.27766e-06
1.27766e-06
1.27766e-06
1.27766e-06
1.27766e-06
1.28075e-06
1.28217e-06
1.28234e-06
1.28057e-06
1.27766e-06
1.27766e-06
1.27766e-06
1.27766e-06
1.27766e-06
1.27766e-06
1.28072e-06
1.28102e-06
1.28067e-06
1.27766e-06
1.27766e-06
1.27766e-06
1.27766e-06
1.27766e-06
1.27766e-06
1.28078e-06
1.28234e-06
1.28215e-06
1.28029e-06
1.27766e-06
1.27766e-06
1.27766e-06
1.27766e-06
1.28037e-06
1.28089e-06
1.28244e-06
1.28233e-06
1.28091e-06
1.2808e-06
1.28075e-06
1.28072e-06
1.28078e-06
1.28089e-06
1.28221e-06
1.28241e-06
1.28217e-06
1.28102e-06
1.28234e-06
1.28244e-06
1.26703e-06
1.26691e-06
1.2668e-06
1.26527e-06
1.26518e-06
1.26513e-06
1.26523e-06
1.26671e-06
1.2669e-06
1.2668e-06
1.2648e-06
1.26223e-06
1.26223e-06
1.26223e-06
1.26223e-06
1.26485e-06
1.26547e-06
1.26527e-06
1.26223e-06
1.26223e-06
1.26223e-06
1.26223e-06
1.26223e-06
1.26223e-06
1.26537e-06
1.26698e-06
1.26703e-06
1.26518e-06
1.26223e-06
1.26223e-06
1.26223e-06
1.26223e-06
1.26223e-06
1.26223e-06
1.26532e-06
1.26674e-06
1.26691e-06
1.26513e-06
1.26223e-06
1.26223e-06
1.26223e-06
1.26223e-06
1.26223e-06
1.26223e-06
1.26529e-06
1.26559e-06
1.26523e-06
1.26223e-06
1.26223e-06
1.26223e-06
1.26223e-06
1.26223e-06
1.26223e-06
1.26535e-06
1.26691e-06
1.26671e-06
1.26485e-06
1.26223e-06
1.26223e-06
1.26223e-06
1.26223e-06
1.26494e-06
1.26545e-06
1.267e-06
1.2669e-06
1.26547e-06
1.26537e-06
1.26532e-06
1.26529e-06
1.26535e-06
1.26545e-06
1.26677e-06
1.26698e-06
1.26674e-06
1.26559e-06
1.26691e-06
1.267e-06
1.2516e-06
1.25147e-06
1.25137e-06
1.24983e-06
1.24974e-06
1.2497e-06
1.2498e-06
1.25128e-06
1.25147e-06
1.25137e-06
1.24936e-06
1.24679e-06
1.24679e-06
1.24679e-06
1.24679e-06
1.24942e-06
1.25004e-06
1.24983e-06
1.24679e-06
1.24679e-06
1.24679e-06
1.24679e-06
1.24679e-06
1.24679e-06
1.24993e-06
1.25154e-06
1.2516e-06
1.24974e-06
1.24679e-06
1.24679e-06
1.24679e-06
1.24679e-06
1.24679e-06
1.24679e-06
1.24988e-06
1.2513e-06
1.25147e-06
1.2497e-06
1.24679e-06
1.24679e-06
1.24679e-06
1.24679e-06
1.24679e-06
1.24679e-06
1.24985e-06
1.25015e-06
1.2498e-06
1.24679e-06
1.24679e-06
1.24679e-06
1.24679e-06
1.24679e-06
1.24679e-06
1.24991e-06
1.25147e-06
1.25128e-06
1.24942e-06
1.24679e-06
1.24679e-06
1.24679e-06
1.24679e-06
1.2495e-06
1.25002e-06
1.25157e-06
1.25147e-06
1.25004e-06
1.24993e-06
1.24988e-06
1.24985e-06
1.24991e-06
1.25002e-06
1.25134e-06
1.25154e-06
1.2513e-06
1.25015e-06
1.25147e-06
1.25157e-06
1.23616e-06
1.23604e-06
1.23593e-06
1.2344e-06
1.23431e-06
1.23427e-06
1.23436e-06
1.23584e-06
1.23603e-06
1.23593e-06
1.23393e-06
1.23136e-06
1.23136e-06
1.23136e-06
1.23136e-06
1.23399e-06
1.2346e-06
1.2344e-06
1.23136e-06
1.23136e-06
1.23136e-06
1.23136e-06
1.23136e-06
1.23136e-06
1.2345e-06
1.23611e-06
1.23616e-06
1.23431e-06
1.23136e-06
1.23136e-06
1.23136e-06
1.23136e-06
1.23136e-06
1.23136e-06
1.23445e-06
1.23587e-06
1.23604e-06
1.23427e-06
1.23136e-06
1.23136e-06
1.23136e-06
1.23136e-06
1.23136e-06
1.23136e-06
1.23442e-06
1.23472e-06
1.23436e-06
1.23136e-06
1.23136e-06
1.23136e-06
1.23136e-06
1.23136e-06
1.23136e-06
1.23448e-06
1.23604e-06
1.23584e-06
1.23399e-06
1.23136e-06
1.23136e-06
1.23136e-06
1.23136e-06
1.23407e-06
1.23458e-06
1.23613e-06
1.23603e-06
1.2346e-06
1.2345e-06
1.23445e-06
1.23442e-06
1.23448e-06
1.23458e-06
1.23591e-06
1.23611e-06
1.23587e-06
1.23472e-06
1.23604e-06
1.23613e-06
1.22073e-06
1.2206e-06
1.2205e-06
1.21897e-06
1.21887e-06
1.21883e-06
1.21893e-06
1.22041e-06
1.2206e-06
1.2205e-06
1.2185e-06
1.21593e-06
1.21593e-06
1.21593e-06
1.21593e-06
1.21855e-06
1.21917e-06
1.21897e-06
1.21593e-06
1.21593e-06
1.21593e-06
1.21593e-06
1.21593e-06
1.21593e-06
1.21907e-06
1.22068e-06
1.22073e-06
1.21887e-06
1.21593e-06
1.21593e-06
1.21593e-06
1.21593e-06
1.21593e-06
1.21593e-06
1.21902e-06
1.22044e-06
1.2206e-06
1.21883e-06
1.21593e-06
1.21593e-06
1.21593e-06
1.21593e-06
1.21593e-06
1.21593e-06
1.21898e-06
1.21929e-06
1.21893e-06
1.21593e-06
1.21593e-06
1.21593e-06
1.21593e-06
1.21593e-06
1.21593e-06
1.21904e-06
1.22061e-06
1.22041e-06
1.21855e-06
1.21593e-06
1.21593e-06
1.21593e-06
1.21593e-06
1.21864e-06
1.21915e-06
1.2207e-06
1.2206e-06
1.21917e-06
1.21907e-06
1.21902e-06
1.21898e-06
1.21904e-06
1.21915e-06
1.22047e-06
1.22068e-06
1.22044e-06
1.21929e-06
1.22061e-06
1.2207e-06
1.2053e-06
1.20517e-06
1.20506e-06
1.20353e-06
1.20344e-06
1.2034e-06
1.2035e-06
1.20498e-06
1.20517e-06
1.20506e-06
1.20306e-06
1.20049e-06
1.20049e-06
1.20049e-06
1.20049e-06
1.20312e-06
1.20374e-06
1.20353e-06
1.20049e-06
1.20049e-06
1.20049e-06
1.20049e-06
1.20049e-06
1.20049e-06
1.20363e-06
1.20524e-06
1.2053e-06
1.20344e-06
1.20049e-06
1.20049e-06
1.20049e-06
1.20049e-06
1.20049e-06
1.20049e-06
1.20358e-06
1.205e-06
1.20517e-06
1.2034e-06
1.20049e-06
1.20049e-06
1.20049e-06
1.20049e-06
1.20049e-06
1.20049e-06
1.20355e-06
1.20385e-06
1.2035e-06
1.20049e-06
1.20049e-06
1.20049e-06
1.20049e-06
1.20049e-06
1.20049e-06
1.20361e-06
1.20517e-06
1.20498e-06
1.20312e-06
1.20049e-06
1.20049e-06
1.20049e-06
1.20049e-06
1.2032e-06
1.20372e-06
1.20527e-06
1.20517e-06
1.20374e-06
1.20363e-06
1.20358e-06
1.20355e-06
1.20361e-06
1.20372e-06
1.20504e-06
1.20524e-06
1.205e-06
1.20385e-06
1.20517e-06
1.20527e-06
1.18986e-06
1.18974e-06
1.18963e-06
1.1881e-06
1.18801e-06
1.18797e-06
1.18806e-06
1.18954e-06
1.18973e-06
1.18963e-06
1.18763e-06
1.18506e-06
1.18506e-06
1.18506e-06
1.18506e-06
1.18769e-06
1.1883e-06
1.1881e-06
1.18506e-06
1.18506e-06
1.18506e-06
1.18506e-06
1.18506e-06
1.18506e-06
1.1882e-06
1.18981e-06
1.18986e-06
1.18801e-06
1.18506e-06
1.18506e-06
1.18506e-06
1.18506e-06
1.18506e-06
1.18506e-06
1.18815e-06
1.18957e-06
1.18974e-06
1.18797e-06
1.18506e-06
1.18506e-06
1.18506e-06
1.18506e-06
1.18506e-06
1.18506e-06
1.18812e-06
1.18842e-06
1.18806e-06
1.18506e-06
1.18506e-06
1.18506e-06
1.18506e-06
1.18506e-06
1.18506e-06
1.18818e-06
1.18974e-06
1.18954e-06
1.18769e-06
1.18506e-06
1.18506e-06
1.18506e-06
1.18506e-06
1.18777e-06
1.18828e-06
1.18983e-06
1.18973e-06
1.1883e-06
1.1882e-06
1.18815e-06
1.18812e-06
1.18818e-06
1.18828e-06
1.18961e-06
1.18981e-06
1.18957e-06
1.18842e-06
1.18974e-06
1.18983e-06
1.17443e-06
1.1743e-06
1.1742e-06
1.17267e-06
1.17258e-06
1.17253e-06
1.17263e-06
1.17411e-06
1.1743e-06
1.1742e-06
1.1722e-06
1.16963e-06
1.16963e-06
1.16963e-06
1.16963e-06
1.17225e-06
1.17287e-06
1.17267e-06
1.16963e-06
1.16963e-06
1.16963e-06
1.16963e-06
1.16963e-06
1.16963e-06
1.17277e-06
1.17438e-06
1.17443e-06
1.17258e-06
1.16963e-06
1.16963e-06
1.16963e-06
1.16963e-06
1.16963e-06
1.16963e-06
1.17272e-06
1.17414e-06
1.1743e-06
1.17253e-06
1.16963e-06
1.16963e-06
1.16963e-06
1.16963e-06
1.16963e-06
1.16963e-06
1.17269e-06
1.17299e-06
1.17263e-06
1.16963e-06
1.16963e-06
1.16963e-06
1.16963e-06
1.16963e-06
1.16963e-06
1.17275e-06
1.17431e-06
1.17411e-06
1.17225e-06
1.16963e-06
1.16963e-06
1.16963e-06
1.16963e-06
1.17234e-06
1.17285e-06
1.1744e-06
1.1743e-06
1.17287e-06
1.17277e-06
1.17272e-06
1.17269e-06
1.17275e-06
1.17285e-06
1.17417e-06
1.17438e-06
1.17414e-06
1.17299e-06
1.17431e-06
1.1744e-06
1.159e-06
1.15887e-06
1.15877e-06
1.15723e-06
1.15714e-06
1.1571e-06
1.1572e-06
1.15868e-06
1.15887e-06
1.15877e-06
1.15676e-06
1.1542e-06
1.1542e-06
1.1542e-06
1.1542e-06
1.15682e-06
1.15744e-06
1.15723e-06
1.1542e-06
1.1542e-06
1.1542e-06
1.1542e-06
1.1542e-06
1.1542e-06
1.15733e-06
1.15894e-06
1.159e-06
1.15714e-06
1.1542e-06
1.1542e-06
1.1542e-06
1.1542e-06
1.1542e-06
1.1542e-06
1.15728e-06
1.1587e-06
1.15887e-06
1.1571e-06
1.1542e-06
1.1542e-06
1.1542e-06
1.1542e-06
1.1542e-06
1.1542e-06
1.15725e-06
1.15755e-06
1.1572e-06
1.1542e-06
1.1542e-06
1.1542e-06
1.1542e-06
1.1542e-06
1.1542e-06
1.15731e-06
1.15888e-06
1.15868e-06
1.15682e-06
1.1542e-06
1.1542e-06
1.1542e-06
1.1542e-06
1.1569e-06
1.15742e-06
1.15897e-06
1.15887e-06
1.15744e-06
1.15733e-06
1.15728e-06
1.15725e-06
1.15731e-06
1.15742e-06
1.15874e-06
1.15894e-06
1.1587e-06
1.15756e-06
1.15888e-06
1.15897e-06
1.14356e-06
1.14344e-06
1.14333e-06
1.1418e-06
1.14171e-06
1.14167e-06
1.14177e-06
1.14325e-06
1.14343e-06
1.14333e-06
1.14133e-06
1.13876e-06
1.13876e-06
1.13876e-06
1.13876e-06
1.14139e-06
1.14201e-06
1.1418e-06
1.13876e-06
1.13876e-06
1.13876e-06
1.13876e-06
1.13876e-06
1.13876e-06
1.1419e-06
1.14351e-06
1.14356e-06
1.14171e-06
1.13876e-06
1.13876e-06
1.13876e-06
1.13876e-06
1.13876e-06
1.13876e-06
1.14185e-06
1.14327e-06
1.14344e-06
1.14167e-06
1.13876e-06
1.13876e-06
1.13876e-06
1.13876e-06
1.13876e-06
1.13876e-06
1.14182e-06
1.14212e-06
1.14177e-06
1.13876e-06
1.13876e-06
1.13876e-06
1.13876e-06
1.13876e-06
1.13876e-06
1.14188e-06
1.14344e-06
1.14325e-06
1.14139e-06
1.13876e-06
1.13876e-06
1.13876e-06
1.13876e-06
1.14147e-06
1.14199e-06
1.14354e-06
1.14343e-06
1.14201e-06
1.1419e-06
1.14185e-06
1.14182e-06
1.14188e-06
1.14199e-06
1.14331e-06
1.14351e-06
1.14327e-06
1.14212e-06
1.14344e-06
1.14354e-06
1.12813e-06
1.12801e-06
1.1279e-06
1.12637e-06
1.12628e-06
1.12623e-06
1.12633e-06
1.12781e-06
1.128e-06
1.1279e-06
1.1259e-06
1.12333e-06
1.12333e-06
1.12333e-06
1.12333e-06
1.12595e-06
1.12657e-06
1.12637e-06
1.12333e-06
1.12333e-06
1.12333e-06
1.12333e-06
1.12333e-06
1.12333e-06
1.12647e-06
1.12808e-06
1.12813e-06
1.12628e-06
1.12333e-06
1.12333e-06
1.12333e-06
1.12333e-06
1.12333e-06
1.12333e-06
1.12642e-06
1.12784e-06
1.12801e-06
1.12623e-06
1.12333e-06
1.12333e-06
1.12333e-06
1.12333e-06
1.12333e-06
1.12333e-06
1.12639e-06
1.12669e-06
1.12633e-06
1.12333e-06
1.12333e-06
1.12333e-06
1.12333e-06
1.12333e-06
1.12333e-06
1.12645e-06
1.12801e-06
1.12781e-06
1.12595e-06
1.12333e-06
1.12333e-06
1.12333e-06
1.12333e-06
1.12604e-06
1.12655e-06
1.1281e-06
1.128e-06
1.12657e-06
1.12647e-06
1.12642e-06
1.12639e-06
1.12645e-06
1.12655e-06
1.12787e-06
1.12808e-06
1.12784e-06
1.12669e-06
1.12801e-06
1.1281e-06
1.1127e-06
1.11257e-06
1.11247e-06
1.11093e-06
1.11084e-06
1.1108e-06
1.1109e-06
1.11238e-06
1.11257e-06
1.11247e-06
1.11046e-06
1.1079e-06
1.1079e-06
1.1079e-06
1.1079e-06
1.11052e-06
1.11114e-06
1.11093e-06
1.1079e-06
1.1079e-06
1.1079e-06
1.1079e-06
1.1079e-06
1.1079e-06
1.11103e-06
1.11264e-06
1.1127e-06
1.11084e-06
1.1079e-06
1.1079e-06
1.1079e-06
1.1079e-06
1.1079e-06
1.1079e-06
1.11098e-06
1.1124e-06
1.11257e-06
1.1108e-06
1.1079e-06
1.1079e-06
1.1079e-06
1.1079e-06
1.1079e-06
1.1079e-06
1.11095e-06
1.11126e-06
1.1109e-06
1.1079e-06
1.1079e-06
1.1079e-06
1.1079e-06
1.1079e-06
1.1079e-06
1.11101e-06
1.11258e-06
1.11238e-06
1.11052e-06
1.1079e-06
1.1079e-06
1.1079e-06
1.1079e-06
1.1106e-06
1.11112e-06
1.11267e-06
1.11257e-06
1.11114e-06
1.11103e-06
1.11098e-06
1.11095e-06
1.11101e-06
1.11112e-06
1.11244e-06
1.11264e-06
1.1124e-06
1.11126e-06
1.11258e-06
1.11267e-06
1.09726e-06
1.09714e-06
1.09703e-06
1.0955e-06
1.09541e-06
1.09537e-06
1.09547e-06
1.09694e-06
1.09713e-06
1.09703e-06
1.09503e-06
1.09246e-06
1.09246e-06
1.09246e-06
1.09246e-06
1.09509e-06
1.09571e-06
1.0955e-06
1.09246e-06
1.09246e-06
1.09246e-06
1.09246e-06
1.09246e-06
1.09246e-06
1.0956e-06
1.09721e-06
1.09726e-06
1.09541e-06
1.09246e-06
1.09246e-06
1.09246e-06
1.09246e-06
1.09246e-06
1.09246e-06
1.09555e-06
1.09697e-06
1.09714e-06
1.09537e-06
1.09246e-06
1.09246e-06
1.09246e-06
1.09246e-06
1.09246e-06
1.09246e-06
1.09552e-06
1.09582e-06
1.09547e-06
1.09246e-06
1.09246e-06
1.09246e-06
1.09246e-06
1.09246e-06
1.09246e-06
1.09558e-06
1.09714e-06
1.09694e-06
1.09509e-06
1.09246e-06
1.09246e-06
1.09246e-06
1.09246e-06
1.09517e-06
1.09569e-06
1.09724e-06
1.09713e-06
1.0957e-06
1.0956e-06
1.09555e-06
1.09552e-06
1.09558e-06
1.09569e-06
1.09701e-06
1.09721e-06
1.09697e-06
1.09582e-06
1.09714e-06
1.09724e-06
1.08183e-06
1.08171e-06
1.0816e-06
1.08007e-06
1.07998e-06
1.07993e-06
1.08003e-06
1.08151e-06
1.0817e-06
1.0816e-06
1.0796e-06
1.07703e-06
1.07703e-06
1.07703e-06
1.07703e-06
1.07965e-06
1.08027e-06
1.08007e-06
1.07703e-06
1.07703e-06
1.07703e-06
1.07703e-06
1.07703e-06
1.07703e-06
1.08017e-06
1.08178e-06
1.08183e-06
1.07998e-06
1.07703e-06
1.07703e-06
1.07703e-06
1.07703e-06
1.07703e-06
1.07703e-06
1.08012e-06
1.08154e-06
1.0817e-06
1.07993e-06
1.07703e-06
1.07703e-06
1.07703e-06
1.07703e-06
1.07703e-06
1.07703e-06
1.08009e-06
1.08039e-06
1.08003e-06
1.07703e-06
1.07703e-06
1.07703e-06
1.07703e-06
1.07703e-06
1.07703e-06
1.08015e-06
1.08171e-06
1.08151e-06
1.07965e-06
1.07703e-06
1.07703e-06
1.07703e-06
1.07703e-06
1.07974e-06
1.08025e-06
1.0818e-06
1.0817e-06
1.08027e-06
1.08017e-06
1.08012e-06
1.08009e-06
1.08015e-06
1.08025e-06
1.08157e-06
1.08178e-06
1.08154e-06
1.08039e-06
1.08171e-06
1.0818e-06
1.0664e-06
1.06627e-06
1.06616e-06
1.06463e-06
1.06454e-06
1.0645e-06
1.0646e-06
1.06608e-06
1.06627e-06
1.06616e-06
1.06416e-06
1.06159e-06
1.06159e-06
1.06159e-06
1.06159e-06
1.06422e-06
1.06484e-06
1.06463e-06
1.06159e-06
1.06159e-06
1.06159e-06
1.06159e-06
1.06159e-06
1.06159e-06
1.06473e-06
1.06634e-06
1.0664e-06
1.06454e-06
1.06159e-06
1.06159e-06
1.06159e-06
1.06159e-06
1.06159e-06
1.06159e-06
1.06468e-06
1.0661e-06
1.06627e-06
1.0645e-06
1.06159e-06
1.06159e-06
1.06159e-06
1.06159e-06
1.06159e-06
1.06159e-06
1.06465e-06
1.06495e-06
1.0646e-06
1.06159e-06
1.06159e-06
1.06159e-06
1.06159e-06
1.06159e-06
1.06159e-06
1.06471e-06
1.06627e-06
1.06608e-06
1.06422e-06
1.06159e-06
1.06159e-06
1.06159e-06
1.06159e-06
1.0643e-06
1.06482e-06
1.06637e-06
1.06627e-06
1.06484e-06
1.06473e-06
1.06468e-06
1.06465e-06
1.06471e-06
1.06482e-06
1.06614e-06
1.06634e-06
1.0661e-06
1.06495e-06
1.06627e-06
1.06637e-06
1.05096e-06
1.05084e-06
1.05073e-06
1.0492e-06
1.04911e-06
1.04907e-06
1.04916e-06
1.05064e-06
1.05083e-06
1.05073e-06
1.04873e-06
1.04616e-06
1.04616e-06
1.04616e-06
1.04616e-06
1.04879e-06
1.0494e-06
1.0492e-06
1.04616e-06
1.04616e-06
1.04616e-06
1.04616e-06
1.04616e-06
1.04616e-06
1.0493e-06
1.05091e-06
1.05096e-06
1.04911e-06
1.04616e-06
1.04616e-06
1.04616e-06
1.04616e-06
1.04616e-06
1.04616e-06
1.04925e-06
1.05067e-06
1.05084e-06
1.04907e-06
1.04616e-06
1.04616e-06
1.04616e-06
1.04616e-06
1.04616e-06
1.04616e-06
1.04922e-06
1.04952e-06
1.04916e-06
1.04616e-06
1.04616e-06
1.04616e-06
1.04616e-06
1.04616e-06
1.04616e-06
1.04928e-06
1.05084e-06
1.05064e-06
1.04879e-06
1.04616e-06
1.04616e-06
1.04616e-06
1.04616e-06
1.04887e-06
1.04938e-06
1.05093e-06
1.05083e-06
1.0494e-06
1.0493e-06
1.04925e-06
1.04922e-06
1.04928e-06
1.04939e-06
1.05071e-06
1.05091e-06
1.05067e-06
1.04952e-06
1.05084e-06
1.05093e-06
1.03553e-06
1.0354e-06
1.0353e-06
1.03377e-06
1.03367e-06
1.03363e-06
1.03373e-06
1.03521e-06
1.0354e-06
1.0353e-06
1.0333e-06
1.03073e-06
1.03073e-06
1.03073e-06
1.03073e-06
1.03335e-06
1.03397e-06
1.03376e-06
1.03073e-06
1.03073e-06
1.03073e-06
1.03073e-06
1.03073e-06
1.03073e-06
1.03387e-06
1.03548e-06
1.03553e-06
1.03367e-06
1.03073e-06
1.03073e-06
1.03073e-06
1.03073e-06
1.03073e-06
1.03073e-06
1.03382e-06
1.03524e-06
1.0354e-06
1.03363e-06
1.03073e-06
1.03073e-06
1.03073e-06
1.03073e-06
1.03073e-06
1.03073e-06
1.03379e-06
1.03409e-06
1.03373e-06
1.03073e-06
1.03073e-06
1.03073e-06
1.03073e-06
1.03073e-06
1.03073e-06
1.03384e-06
1.03541e-06
1.03521e-06
1.03335e-06
1.03073e-06
1.03073e-06
1.03073e-06
1.03073e-06
1.03344e-06
1.03395e-06
1.0355e-06
1.0354e-06
1.03397e-06
1.03387e-06
1.03382e-06
1.03379e-06
1.03384e-06
1.03395e-06
1.03527e-06
1.03548e-06
1.03524e-06
1.03409e-06
1.03541e-06
1.0355e-06
1.0201e-06
1.01997e-06
1.01986e-06
1.01833e-06
1.01824e-06
1.0182e-06
1.0183e-06
1.01978e-06
1.01997e-06
1.01986e-06
1.01786e-06
1.01529e-06
1.01529e-06
1.01529e-06
1.01529e-06
1.01792e-06
1.01854e-06
1.01833e-06
1.01529e-06
1.01529e-06
1.01529e-06
1.01529e-06
1.01529e-06
1.01529e-06
1.01843e-06
1.02004e-06
1.0201e-06
1.01824e-06
1.01529e-06
1.01529e-06
1.01529e-06
1.01529e-06
1.01529e-06
1.01529e-06
1.01838e-06
1.0198e-06
1.01997e-06
1.0182e-06
1.01529e-06
1.01529e-06
1.01529e-06
1.01529e-06
1.01529e-06
1.01529e-06
1.01835e-06
1.01865e-06
1.0183e-06
1.01529e-06
1.01529e-06
1.01529e-06
1.01529e-06
1.01529e-06
1.01529e-06
1.01841e-06
1.01997e-06
1.01978e-06
1.01792e-06
1.01529e-06
1.01529e-06
1.01529e-06
1.01529e-06
1.018e-06
1.01852e-06
1.02007e-06
1.01997e-06
1.01854e-06
1.01843e-06
1.01838e-06
1.01835e-06
1.01841e-06
1.01852e-06
1.01984e-06
1.02004e-06
1.0198e-06
1.01865e-06
1.01997e-06
1.02007e-06
1.00466e-06
1.00454e-06
1.00443e-06
1.0029e-06
1.00281e-06
1.00277e-06
1.00287e-06
1.00434e-06
1.00453e-06
1.00443e-06
1.00243e-06
9.99861e-07
9.99861e-07
9.99861e-07
9.99861e-07
1.00249e-06
1.0031e-06
1.0029e-06
9.99861e-07
9.99862e-07
9.99862e-07
9.99862e-07
9.99862e-07
9.99861e-07
1.003e-06
1.00461e-06
1.00466e-06
1.00281e-06
9.99861e-07
9.99862e-07
9.99862e-07
9.99862e-07
9.99862e-07
9.99861e-07
1.00295e-06
1.00437e-06
1.00454e-06
1.00277e-06
9.99861e-07
9.99862e-07
9.99862e-07
9.99862e-07
9.99862e-07
9.99861e-07
1.00292e-06
1.00322e-06
1.00287e-06
9.99861e-07
9.99862e-07
9.99862e-07
9.99862e-07
9.99862e-07
9.99861e-07
1.00298e-06
1.00454e-06
1.00434e-06
1.00249e-06
9.99861e-07
9.99862e-07
9.99862e-07
9.99861e-07
1.00257e-06
1.00309e-06
1.00463e-06
1.00453e-06
1.00311e-06
1.003e-06
1.00295e-06
1.00292e-06
1.00298e-06
1.00309e-06
1.00441e-06
1.00461e-06
1.00437e-06
1.00322e-06
1.00454e-06
1.00463e-06
9.8923e-07
9.89105e-07
9.88999e-07
9.87466e-07
9.87376e-07
9.87334e-07
9.87432e-07
9.88911e-07
9.891e-07
9.88999e-07
9.86997e-07
9.84428e-07
9.84428e-07
9.84428e-07
9.84428e-07
9.87053e-07
9.87672e-07
9.87466e-07
9.84428e-07
9.84429e-07
9.84428e-07
9.84428e-07
9.84429e-07
9.84428e-07
9.87567e-07
9.89177e-07
9.8923e-07
9.87376e-07
9.84428e-07
9.84429e-07
9.84428e-07
9.84428e-07
9.84429e-07
9.84428e-07
9.87517e-07
9.88937e-07
9.89105e-07
9.87333e-07
9.84428e-07
9.84429e-07
9.84428e-07
9.84428e-07
9.84429e-07
9.84428e-07
9.87486e-07
9.87788e-07
9.87432e-07
9.84428e-07
9.84429e-07
9.84429e-07
9.84429e-07
9.84429e-07
9.84428e-07
9.87546e-07
9.89108e-07
9.88911e-07
9.87053e-07
9.84428e-07
9.84428e-07
9.84428e-07
9.84428e-07
9.87137e-07
9.87652e-07
9.89201e-07
9.891e-07
9.87672e-07
9.87567e-07
9.87517e-07
9.87486e-07
9.87546e-07
9.87653e-07
9.88973e-07
9.89177e-07
9.88938e-07
9.87788e-07
9.89108e-07
9.89201e-07