/*--------------------------------*- C++ -*----------------------------------*\
| =========                 |                                                 |
| \\      /  F ield         | OpenFOAM: The Open Source CFD Toolbox           |
|  \\    /   O peration     | Version:  v2012                                 |
|   \\  /    A nd           | Website:  www.openfoam.com                      |
|    \\/     M anipulation  |                                                 |
\*---------------------------------------------------------------------------*/
FoamFile
{
    version     2.0;
    format      ascii;
    class       volScalarField;
    location    "15.5";
    object      p;
}
// * * * * * * * * * * * * * * * * * * * * * * * * * * * * * * * * * * * * * //

dimensions      [0 2 -2 0 0 0 0];


internalField   nonuniform List<scalar> 
244288
(
1.46661e-06
1.46671e-06
1.46668e-06
1.46659e-06
1.46655e-06
1.46661e-06
1.46669e-06
1.46671e-06
1.46674e-06
1.46652e-06
1.46627e-06
1.46618e-06
1.4663e-06
1.46656e-06
1.46675e-06
1.46668e-06
1.46652e-06
1.46612e-06
1.46578e-06
1.46566e-06
1.46581e-06
1.46617e-06
1.46657e-06
1.46667e-06
1.4666e-06
1.46627e-06
1.46578e-06
1.4654e-06
1.46527e-06
1.46543e-06
1.46584e-06
1.46633e-06
1.46661e-06
1.46661e-06
1.46655e-06
1.46618e-06
1.46566e-06
1.46527e-06
1.46514e-06
1.46531e-06
1.46573e-06
1.46624e-06
1.46656e-06
1.46661e-06
1.4663e-06
1.46581e-06
1.46543e-06
1.46531e-06
1.46547e-06
1.46587e-06
1.46635e-06
1.46662e-06
1.46669e-06
1.46656e-06
1.46617e-06
1.46584e-06
1.46573e-06
1.46587e-06
1.46622e-06
1.4666e-06
1.46668e-06
1.46675e-06
1.46657e-06
1.46633e-06
1.46624e-06
1.46636e-06
1.4666e-06
1.46676e-06
1.46667e-06
1.46661e-06
1.46656e-06
1.46662e-06
1.46668e-06
1.44462e-06
1.44427e-06
1.44411e-06
1.4427e-06
1.44261e-06
1.4426e-06
1.44263e-06
1.44406e-06
1.44417e-06
1.44411e-06
1.44224e-06
1.43986e-06
1.43986e-06
1.43985e-06
1.43986e-06
1.44231e-06
1.44282e-06
1.4427e-06
1.43986e-06
1.43981e-06
1.43985e-06
1.43985e-06
1.43981e-06
1.43986e-06
1.44274e-06
1.44432e-06
1.44462e-06
1.44261e-06
1.43985e-06
1.43985e-06
1.4399e-06
1.4399e-06
1.43985e-06
1.43986e-06
1.44268e-06
1.44407e-06
1.44427e-06
1.4426e-06
1.43985e-06
1.43985e-06
1.4399e-06
1.4399e-06
1.43985e-06
1.43986e-06
1.44264e-06
1.44292e-06
1.44263e-06
1.43986e-06
1.43981e-06
1.43985e-06
1.43985e-06
1.43981e-06
1.43986e-06
1.44271e-06
1.44421e-06
1.44406e-06
1.44231e-06
1.43986e-06
1.43986e-06
1.43986e-06
1.43986e-06
1.4423e-06
1.44282e-06
1.44433e-06
1.44417e-06
1.44282e-06
1.44274e-06
1.44268e-06
1.44264e-06
1.44271e-06
1.44283e-06
1.44403e-06
1.44432e-06
1.44407e-06
1.44292e-06
1.44421e-06
1.44433e-06
1.4292e-06
1.42908e-06
1.42898e-06
1.42747e-06
1.42739e-06
1.42736e-06
1.42744e-06
1.4289e-06
1.42908e-06
1.42898e-06
1.42702e-06
1.42448e-06
1.42448e-06
1.42448e-06
1.42448e-06
1.42708e-06
1.42767e-06
1.42747e-06
1.42448e-06
1.42445e-06
1.42446e-06
1.42446e-06
1.42445e-06
1.42448e-06
1.42757e-06
1.42916e-06
1.4292e-06
1.42739e-06
1.42448e-06
1.42446e-06
1.42447e-06
1.42447e-06
1.42446e-06
1.42448e-06
1.42751e-06
1.42891e-06
1.42907e-06
1.42736e-06
1.42448e-06
1.42446e-06
1.42447e-06
1.42447e-06
1.42446e-06
1.42448e-06
1.42747e-06
1.42776e-06
1.42744e-06
1.42448e-06
1.42445e-06
1.42446e-06
1.42446e-06
1.42445e-06
1.42448e-06
1.42754e-06
1.42908e-06
1.4289e-06
1.42708e-06
1.42448e-06
1.42448e-06
1.42448e-06
1.42448e-06
1.42712e-06
1.42764e-06
1.42918e-06
1.42908e-06
1.42767e-06
1.42757e-06
1.42751e-06
1.42747e-06
1.42754e-06
1.42764e-06
1.42895e-06
1.42916e-06
1.42891e-06
1.42777e-06
1.42908e-06
1.42918e-06
1.41387e-06
1.41375e-06
1.41365e-06
1.41212e-06
1.41204e-06
1.412e-06
1.41209e-06
1.41356e-06
1.41375e-06
1.41365e-06
1.41166e-06
1.40911e-06
1.40911e-06
1.40911e-06
1.40911e-06
1.41172e-06
1.41233e-06
1.41212e-06
1.40911e-06
1.40911e-06
1.40911e-06
1.40911e-06
1.4091e-06
1.40911e-06
1.41223e-06
1.41382e-06
1.41387e-06
1.41204e-06
1.40911e-06
1.40911e-06
1.40911e-06
1.40911e-06
1.40911e-06
1.40911e-06
1.41218e-06
1.41358e-06
1.41375e-06
1.412e-06
1.40911e-06
1.40911e-06
1.40911e-06
1.40911e-06
1.40911e-06
1.40911e-06
1.41214e-06
1.41244e-06
1.41209e-06
1.40911e-06
1.40911e-06
1.40911e-06
1.40911e-06
1.40911e-06
1.40911e-06
1.4122e-06
1.41376e-06
1.41356e-06
1.41172e-06
1.40911e-06
1.40911e-06
1.40911e-06
1.40911e-06
1.4118e-06
1.41231e-06
1.41385e-06
1.41375e-06
1.41233e-06
1.41223e-06
1.41218e-06
1.41214e-06
1.4122e-06
1.41231e-06
1.41362e-06
1.41382e-06
1.41358e-06
1.41244e-06
1.41376e-06
1.41385e-06
1.39852e-06
1.3984e-06
1.39829e-06
1.39677e-06
1.39668e-06
1.39664e-06
1.39674e-06
1.39821e-06
1.39839e-06
1.39829e-06
1.3963e-06
1.39375e-06
1.39375e-06
1.39375e-06
1.39375e-06
1.39636e-06
1.39698e-06
1.39677e-06
1.39375e-06
1.39375e-06
1.39375e-06
1.39375e-06
1.39375e-06
1.39375e-06
1.39687e-06
1.39847e-06
1.39852e-06
1.39668e-06
1.39375e-06
1.39375e-06
1.39375e-06
1.39375e-06
1.39375e-06
1.39375e-06
1.39682e-06
1.39823e-06
1.3984e-06
1.39664e-06
1.39375e-06
1.39375e-06
1.39375e-06
1.39375e-06
1.39375e-06
1.39375e-06
1.39679e-06
1.39709e-06
1.39674e-06
1.39375e-06
1.39375e-06
1.39375e-06
1.39375e-06
1.39375e-06
1.39375e-06
1.39685e-06
1.39841e-06
1.39821e-06
1.39636e-06
1.39375e-06
1.39375e-06
1.39375e-06
1.39375e-06
1.39645e-06
1.39696e-06
1.3985e-06
1.39839e-06
1.39698e-06
1.39687e-06
1.39682e-06
1.39679e-06
1.39685e-06
1.39696e-06
1.39827e-06
1.39847e-06
1.39823e-06
1.39709e-06
1.39841e-06
1.3985e-06
1.38317e-06
1.38304e-06
1.38294e-06
1.38141e-06
1.38132e-06
1.38128e-06
1.38138e-06
1.38285e-06
1.38304e-06
1.38294e-06
1.38094e-06
1.3784e-06
1.3784e-06
1.3784e-06
1.3784e-06
1.38101e-06
1.38162e-06
1.38141e-06
1.3784e-06
1.3784e-06
1.3784e-06
1.3784e-06
1.3784e-06
1.3784e-06
1.38152e-06
1.38312e-06
1.38317e-06
1.38132e-06
1.3784e-06
1.3784e-06
1.3784e-06
1.3784e-06
1.3784e-06
1.3784e-06
1.38147e-06
1.38288e-06
1.38305e-06
1.38128e-06
1.3784e-06
1.3784e-06
1.3784e-06
1.3784e-06
1.3784e-06
1.3784e-06
1.38144e-06
1.38174e-06
1.38138e-06
1.3784e-06
1.37839e-06
1.3784e-06
1.3784e-06
1.3784e-06
1.3784e-06
1.3815e-06
1.38305e-06
1.38285e-06
1.38101e-06
1.3784e-06
1.3784e-06
1.3784e-06
1.3784e-06
1.3811e-06
1.3816e-06
1.38314e-06
1.38304e-06
1.38162e-06
1.38152e-06
1.38147e-06
1.38144e-06
1.3815e-06
1.3816e-06
1.38292e-06
1.38312e-06
1.38288e-06
1.38174e-06
1.38305e-06
1.38314e-06
1.36781e-06
1.36769e-06
1.36758e-06
1.36606e-06
1.36597e-06
1.36593e-06
1.36603e-06
1.3675e-06
1.36768e-06
1.36758e-06
1.36559e-06
1.36304e-06
1.36304e-06
1.36304e-06
1.36304e-06
1.36565e-06
1.36627e-06
1.36606e-06
1.36304e-06
1.36304e-06
1.36304e-06
1.36304e-06
1.36304e-06
1.36304e-06
1.36617e-06
1.36776e-06
1.36781e-06
1.36597e-06
1.36304e-06
1.36304e-06
1.36304e-06
1.36304e-06
1.36304e-06
1.36304e-06
1.36612e-06
1.36753e-06
1.3677e-06
1.36593e-06
1.36304e-06
1.36304e-06
1.36304e-06
1.36304e-06
1.36304e-06
1.36304e-06
1.36609e-06
1.36638e-06
1.36602e-06
1.36304e-06
1.36304e-06
1.36304e-06
1.36304e-06
1.36304e-06
1.36304e-06
1.36615e-06
1.3677e-06
1.3675e-06
1.36565e-06
1.36304e-06
1.36304e-06
1.36304e-06
1.36304e-06
1.36574e-06
1.36625e-06
1.36779e-06
1.36768e-06
1.36627e-06
1.36617e-06
1.36612e-06
1.36609e-06
1.36615e-06
1.36625e-06
1.36756e-06
1.36776e-06
1.36753e-06
1.36638e-06
1.3677e-06
1.36779e-06
1.35246e-06
1.35234e-06
1.35223e-06
1.35071e-06
1.35061e-06
1.35057e-06
1.35067e-06
1.35214e-06
1.35233e-06
1.35223e-06
1.35024e-06
1.34769e-06
1.34769e-06
1.34769e-06
1.34769e-06
1.3503e-06
1.35091e-06
1.35071e-06
1.34769e-06
1.34769e-06
1.34769e-06
1.34769e-06
1.34769e-06
1.34769e-06
1.35081e-06
1.35241e-06
1.35246e-06
1.35061e-06
1.34769e-06
1.34769e-06
1.34769e-06
1.34769e-06
1.34769e-06
1.34769e-06
1.35076e-06
1.35217e-06
1.35234e-06
1.35057e-06
1.34769e-06
1.34769e-06
1.34769e-06
1.34769e-06
1.34769e-06
1.34769e-06
1.35073e-06
1.35103e-06
1.35067e-06
1.34769e-06
1.34769e-06
1.34769e-06
1.34769e-06
1.34769e-06
1.34769e-06
1.35079e-06
1.35234e-06
1.35214e-06
1.3503e-06
1.34769e-06
1.34769e-06
1.34769e-06
1.34769e-06
1.35039e-06
1.35089e-06
1.35243e-06
1.35233e-06
1.35091e-06
1.35081e-06
1.35076e-06
1.35073e-06
1.35079e-06
1.35089e-06
1.35221e-06
1.35241e-06
1.35217e-06
1.35103e-06
1.35234e-06
1.35243e-06
1.3371e-06
1.33698e-06
1.33687e-06
1.33535e-06
1.33526e-06
1.33522e-06
1.33532e-06
1.33679e-06
1.33697e-06
1.33687e-06
1.33488e-06
1.33233e-06
1.33233e-06
1.33233e-06
1.33233e-06
1.33494e-06
1.33556e-06
1.33535e-06
1.33233e-06
1.33233e-06
1.33233e-06
1.33233e-06
1.33233e-06
1.33233e-06
1.33546e-06
1.33705e-06
1.3371e-06
1.33526e-06
1.33233e-06
1.33233e-06
1.33233e-06
1.33233e-06
1.33233e-06
1.33233e-06
1.33541e-06
1.33682e-06
1.33698e-06
1.33522e-06
1.33233e-06
1.33233e-06
1.33233e-06
1.33233e-06
1.33233e-06
1.33233e-06
1.33538e-06
1.33567e-06
1.33532e-06
1.33233e-06
1.33233e-06
1.33233e-06
1.33233e-06
1.33233e-06
1.33233e-06
1.33544e-06
1.33699e-06
1.33679e-06
1.33494e-06
1.33233e-06
1.33233e-06
1.33233e-06
1.33233e-06
1.33503e-06
1.33554e-06
1.33708e-06
1.33698e-06
1.33556e-06
1.33546e-06
1.33541e-06
1.33538e-06
1.33544e-06
1.33554e-06
1.33685e-06
1.33705e-06
1.33682e-06
1.33567e-06
1.33699e-06
1.33708e-06
1.32175e-06
1.32163e-06
1.32152e-06
1.32e-06
1.31991e-06
1.31986e-06
1.31996e-06
1.32143e-06
1.32162e-06
1.32152e-06
1.31953e-06
1.31698e-06
1.31698e-06
1.31698e-06
1.31698e-06
1.31959e-06
1.3202e-06
1.32e-06
1.31698e-06
1.31698e-06
1.31698e-06
1.31698e-06
1.31698e-06
1.31698e-06
1.3201e-06
1.3217e-06
1.32175e-06
1.31991e-06
1.31698e-06
1.31698e-06
1.31698e-06
1.31698e-06
1.31698e-06
1.31698e-06
1.32005e-06
1.32146e-06
1.32163e-06
1.31986e-06
1.31698e-06
1.31698e-06
1.31698e-06
1.31698e-06
1.31698e-06
1.31698e-06
1.32002e-06
1.32032e-06
1.31996e-06
1.31698e-06
1.31698e-06
1.31698e-06
1.31698e-06
1.31698e-06
1.31698e-06
1.32008e-06
1.32163e-06
1.32143e-06
1.31959e-06
1.31698e-06
1.31698e-06
1.31698e-06
1.31698e-06
1.31968e-06
1.32019e-06
1.32172e-06
1.32162e-06
1.3202e-06
1.3201e-06
1.32005e-06
1.32002e-06
1.32008e-06
1.32019e-06
1.3215e-06
1.3217e-06
1.32146e-06
1.32032e-06
1.32163e-06
1.32172e-06
1.30639e-06
1.30627e-06
1.30616e-06
1.30464e-06
1.30455e-06
1.30451e-06
1.30461e-06
1.30608e-06
1.30627e-06
1.30616e-06
1.30417e-06
1.30162e-06
1.30162e-06
1.30162e-06
1.30162e-06
1.30423e-06
1.30485e-06
1.30464e-06
1.30162e-06
1.30162e-06
1.30162e-06
1.30162e-06
1.30162e-06
1.30162e-06
1.30475e-06
1.30635e-06
1.30639e-06
1.30455e-06
1.30162e-06
1.30162e-06
1.30162e-06
1.30162e-06
1.30162e-06
1.30162e-06
1.3047e-06
1.30611e-06
1.30627e-06
1.30451e-06
1.30162e-06
1.30162e-06
1.30162e-06
1.30162e-06
1.30162e-06
1.30162e-06
1.30467e-06
1.30496e-06
1.30461e-06
1.30162e-06
1.30162e-06
1.30162e-06
1.30162e-06
1.30162e-06
1.30162e-06
1.30473e-06
1.30628e-06
1.30608e-06
1.30423e-06
1.30162e-06
1.30162e-06
1.30162e-06
1.30162e-06
1.30432e-06
1.30483e-06
1.30637e-06
1.30627e-06
1.30485e-06
1.30475e-06
1.3047e-06
1.30467e-06
1.30473e-06
1.30483e-06
1.30614e-06
1.30635e-06
1.30611e-06
1.30496e-06
1.30628e-06
1.30637e-06
1.29104e-06
1.29092e-06
1.29081e-06
1.28929e-06
1.2892e-06
1.28915e-06
1.28925e-06
1.29072e-06
1.29091e-06
1.29081e-06
1.28882e-06
1.28627e-06
1.28627e-06
1.28627e-06
1.28627e-06
1.28888e-06
1.28949e-06
1.28929e-06
1.28627e-06
1.28627e-06
1.28627e-06
1.28627e-06
1.28627e-06
1.28627e-06
1.28939e-06
1.29099e-06
1.29104e-06
1.2892e-06
1.28627e-06
1.28627e-06
1.28627e-06
1.28627e-06
1.28627e-06
1.28627e-06
1.28934e-06
1.29075e-06
1.29092e-06
1.28915e-06
1.28627e-06
1.28627e-06
1.28627e-06
1.28627e-06
1.28627e-06
1.28627e-06
1.28931e-06
1.28961e-06
1.28925e-06
1.28627e-06
1.28627e-06
1.28627e-06
1.28627e-06
1.28627e-06
1.28627e-06
1.28937e-06
1.29093e-06
1.29072e-06
1.28888e-06
1.28627e-06
1.28627e-06
1.28627e-06
1.28627e-06
1.28897e-06
1.28948e-06
1.29101e-06
1.29091e-06
1.28949e-06
1.28939e-06
1.28934e-06
1.28931e-06
1.28937e-06
1.28948e-06
1.29079e-06
1.29099e-06
1.29075e-06
1.28961e-06
1.29093e-06
1.29101e-06
1.27569e-06
1.27556e-06
1.27546e-06
1.27393e-06
1.27384e-06
1.2738e-06
1.2739e-06
1.27537e-06
1.27556e-06
1.27546e-06
1.27346e-06
1.27091e-06
1.27091e-06
1.27091e-06
1.27091e-06
1.27352e-06
1.27414e-06
1.27393e-06
1.27091e-06
1.27091e-06
1.27091e-06
1.27091e-06
1.27091e-06
1.27091e-06
1.27404e-06
1.27564e-06
1.27569e-06
1.27384e-06
1.27091e-06
1.27091e-06
1.27091e-06
1.27091e-06
1.27091e-06
1.27091e-06
1.27399e-06
1.2754e-06
1.27556e-06
1.2738e-06
1.27091e-06
1.27091e-06
1.27091e-06
1.27091e-06
1.27091e-06
1.27091e-06
1.27396e-06
1.27426e-06
1.2739e-06
1.27091e-06
1.27091e-06
1.27091e-06
1.27091e-06
1.27091e-06
1.27091e-06
1.27402e-06
1.27557e-06
1.27537e-06
1.27352e-06
1.27091e-06
1.27091e-06
1.27091e-06
1.27091e-06
1.27361e-06
1.27412e-06
1.27566e-06
1.27556e-06
1.27414e-06
1.27404e-06
1.27399e-06
1.27396e-06
1.27402e-06
1.27412e-06
1.27543e-06
1.27564e-06
1.2754e-06
1.27426e-06
1.27557e-06
1.27566e-06
1.26033e-06
1.26021e-06
1.2601e-06
1.25858e-06
1.25849e-06
1.25844e-06
1.25854e-06
1.26002e-06
1.2602e-06
1.2601e-06
1.25811e-06
1.25556e-06
1.25556e-06
1.25556e-06
1.25556e-06
1.25817e-06
1.25879e-06
1.25858e-06
1.25556e-06
1.25556e-06
1.25556e-06
1.25556e-06
1.25556e-06
1.25556e-06
1.25868e-06
1.26028e-06
1.26033e-06
1.25849e-06
1.25556e-06
1.25556e-06
1.25556e-06
1.25556e-06
1.25556e-06
1.25556e-06
1.25864e-06
1.26004e-06
1.26021e-06
1.25844e-06
1.25556e-06
1.25556e-06
1.25556e-06
1.25556e-06
1.25556e-06
1.25556e-06
1.2586e-06
1.2589e-06
1.25854e-06
1.25556e-06
1.25556e-06
1.25556e-06
1.25556e-06
1.25556e-06
1.25556e-06
1.25866e-06
1.26022e-06
1.26002e-06
1.25817e-06
1.25556e-06
1.25556e-06
1.25556e-06
1.25556e-06
1.25826e-06
1.25877e-06
1.26031e-06
1.2602e-06
1.25879e-06
1.25868e-06
1.25864e-06
1.2586e-06
1.25866e-06
1.25877e-06
1.26008e-06
1.26028e-06
1.26004e-06
1.2589e-06
1.26022e-06
1.2603e-06
1.24498e-06
1.24485e-06
1.24475e-06
1.24322e-06
1.24313e-06
1.24309e-06
1.24319e-06
1.24466e-06
1.24485e-06
1.24475e-06
1.24275e-06
1.2402e-06
1.2402e-06
1.2402e-06
1.2402e-06
1.24281e-06
1.24343e-06
1.24322e-06
1.2402e-06
1.2402e-06
1.2402e-06
1.2402e-06
1.2402e-06
1.2402e-06
1.24333e-06
1.24493e-06
1.24498e-06
1.24313e-06
1.2402e-06
1.2402e-06
1.2402e-06
1.2402e-06
1.2402e-06
1.2402e-06
1.24328e-06
1.24469e-06
1.24486e-06
1.24309e-06
1.2402e-06
1.2402e-06
1.2402e-06
1.2402e-06
1.2402e-06
1.2402e-06
1.24325e-06
1.24355e-06
1.24319e-06
1.2402e-06
1.2402e-06
1.2402e-06
1.2402e-06
1.2402e-06
1.2402e-06
1.24331e-06
1.24486e-06
1.24466e-06
1.24281e-06
1.2402e-06
1.2402e-06
1.2402e-06
1.2402e-06
1.24291e-06
1.24341e-06
1.24495e-06
1.24485e-06
1.24343e-06
1.24333e-06
1.24328e-06
1.24325e-06
1.24331e-06
1.24341e-06
1.24472e-06
1.24493e-06
1.24469e-06
1.24355e-06
1.24486e-06
1.24495e-06
1.22962e-06
1.2295e-06
1.22939e-06
1.22787e-06
1.22778e-06
1.22774e-06
1.22783e-06
1.22931e-06
1.22949e-06
1.22939e-06
1.2274e-06
1.22485e-06
1.22485e-06
1.22485e-06
1.22485e-06
1.22746e-06
1.22808e-06
1.22787e-06
1.22485e-06
1.22485e-06
1.22485e-06
1.22485e-06
1.22485e-06
1.22485e-06
1.22797e-06
1.22957e-06
1.22962e-06
1.22778e-06
1.22485e-06
1.22485e-06
1.22485e-06
1.22485e-06
1.22485e-06
1.22485e-06
1.22793e-06
1.22934e-06
1.2295e-06
1.22774e-06
1.22485e-06
1.22485e-06
1.22485e-06
1.22485e-06
1.22485e-06
1.22485e-06
1.2279e-06
1.22819e-06
1.22783e-06
1.22485e-06
1.22485e-06
1.22485e-06
1.22485e-06
1.22485e-06
1.22485e-06
1.22795e-06
1.22951e-06
1.22931e-06
1.22746e-06
1.22485e-06
1.22485e-06
1.22485e-06
1.22485e-06
1.22755e-06
1.22806e-06
1.2296e-06
1.22949e-06
1.22808e-06
1.22797e-06
1.22793e-06
1.2279e-06
1.22795e-06
1.22806e-06
1.22937e-06
1.22957e-06
1.22934e-06
1.22819e-06
1.22951e-06
1.2296e-06
1.21427e-06
1.21414e-06
1.21404e-06
1.21251e-06
1.21242e-06
1.21238e-06
1.21248e-06
1.21395e-06
1.21414e-06
1.21404e-06
1.21204e-06
1.20949e-06
1.20949e-06
1.20949e-06
1.20949e-06
1.2121e-06
1.21272e-06
1.21251e-06
1.20949e-06
1.20949e-06
1.20949e-06
1.20949e-06
1.20949e-06
1.20949e-06
1.21262e-06
1.21422e-06
1.21427e-06
1.21242e-06
1.20949e-06
1.20949e-06
1.20949e-06
1.20949e-06
1.20949e-06
1.20949e-06
1.21257e-06
1.21398e-06
1.21414e-06
1.21238e-06
1.20949e-06
1.20949e-06
1.20949e-06
1.20949e-06
1.20949e-06
1.20949e-06
1.21254e-06
1.21284e-06
1.21248e-06
1.20949e-06
1.20949e-06
1.20949e-06
1.20949e-06
1.20949e-06
1.20949e-06
1.2126e-06
1.21415e-06
1.21395e-06
1.2121e-06
1.20949e-06
1.20949e-06
1.20949e-06
1.20949e-06
1.2122e-06
1.2127e-06
1.21424e-06
1.21414e-06
1.21272e-06
1.21262e-06
1.21257e-06
1.21254e-06
1.2126e-06
1.2127e-06
1.21402e-06
1.21422e-06
1.21398e-06
1.21284e-06
1.21415e-06
1.21424e-06
1.19891e-06
1.19879e-06
1.19868e-06
1.19716e-06
1.19707e-06
1.19703e-06
1.19713e-06
1.1986e-06
1.19878e-06
1.19868e-06
1.19669e-06
1.19414e-06
1.19414e-06
1.19414e-06
1.19414e-06
1.19675e-06
1.19737e-06
1.19716e-06
1.19414e-06
1.19414e-06
1.19414e-06
1.19414e-06
1.19414e-06
1.19414e-06
1.19727e-06
1.19886e-06
1.19891e-06
1.19707e-06
1.19414e-06
1.19414e-06
1.19414e-06
1.19414e-06
1.19414e-06
1.19414e-06
1.19722e-06
1.19863e-06
1.19879e-06
1.19703e-06
1.19414e-06
1.19414e-06
1.19414e-06
1.19414e-06
1.19414e-06
1.19414e-06
1.19719e-06
1.19748e-06
1.19713e-06
1.19414e-06
1.19414e-06
1.19414e-06
1.19414e-06
1.19414e-06
1.19414e-06
1.19725e-06
1.1988e-06
1.1986e-06
1.19675e-06
1.19414e-06
1.19414e-06
1.19414e-06
1.19414e-06
1.19684e-06
1.19735e-06
1.19889e-06
1.19878e-06
1.19737e-06
1.19727e-06
1.19722e-06
1.19719e-06
1.19724e-06
1.19735e-06
1.19866e-06
1.19886e-06
1.19863e-06
1.19748e-06
1.1988e-06
1.19889e-06
1.18356e-06
1.18344e-06
1.18333e-06
1.1818e-06
1.18171e-06
1.18167e-06
1.18177e-06
1.18324e-06
1.18343e-06
1.18333e-06
1.18134e-06
1.17879e-06
1.17879e-06
1.17879e-06
1.17879e-06
1.1814e-06
1.18201e-06
1.1818e-06
1.17879e-06
1.17879e-06
1.17879e-06
1.17879e-06
1.17879e-06
1.17879e-06
1.18191e-06
1.18351e-06
1.18356e-06
1.18171e-06
1.17879e-06
1.17879e-06
1.17879e-06
1.17879e-06
1.17879e-06
1.17879e-06
1.18186e-06
1.18327e-06
1.18344e-06
1.18167e-06
1.17879e-06
1.17879e-06
1.17879e-06
1.17879e-06
1.17879e-06
1.17879e-06
1.18183e-06
1.18213e-06
1.18177e-06
1.17879e-06
1.17879e-06
1.17879e-06
1.17879e-06
1.17879e-06
1.17879e-06
1.18189e-06
1.18344e-06
1.18324e-06
1.1814e-06
1.17879e-06
1.17879e-06
1.17879e-06
1.17879e-06
1.18149e-06
1.18199e-06
1.18353e-06
1.18343e-06
1.18201e-06
1.18191e-06
1.18186e-06
1.18183e-06
1.18189e-06
1.18199e-06
1.18331e-06
1.18351e-06
1.18327e-06
1.18213e-06
1.18344e-06
1.18353e-06
1.1682e-06
1.16808e-06
1.16797e-06
1.16645e-06
1.16636e-06
1.16632e-06
1.16642e-06
1.16789e-06
1.16807e-06
1.16797e-06
1.16598e-06
1.16343e-06
1.16343e-06
1.16343e-06
1.16343e-06
1.16604e-06
1.16666e-06
1.16645e-06
1.16343e-06
1.16343e-06
1.16343e-06
1.16343e-06
1.16343e-06
1.16343e-06
1.16656e-06
1.16815e-06
1.1682e-06
1.16636e-06
1.16343e-06
1.16343e-06
1.16343e-06
1.16343e-06
1.16343e-06
1.16343e-06
1.16651e-06
1.16792e-06
1.16808e-06
1.16632e-06
1.16343e-06
1.16343e-06
1.16343e-06
1.16343e-06
1.16343e-06
1.16343e-06
1.16648e-06
1.16677e-06
1.16642e-06
1.16343e-06
1.16343e-06
1.16343e-06
1.16343e-06
1.16343e-06
1.16343e-06
1.16654e-06
1.16809e-06
1.16789e-06
1.16604e-06
1.16343e-06
1.16343e-06
1.16343e-06
1.16343e-06
1.16613e-06
1.16664e-06
1.16818e-06
1.16807e-06
1.16666e-06
1.16656e-06
1.16651e-06
1.16648e-06
1.16654e-06
1.16664e-06
1.16795e-06
1.16815e-06
1.16792e-06
1.16677e-06
1.16809e-06
1.16818e-06
1.15285e-06
1.15273e-06
1.15262e-06
1.1511e-06
1.15101e-06
1.15096e-06
1.15106e-06
1.15253e-06
1.15272e-06
1.15262e-06
1.15063e-06
1.14808e-06
1.14808e-06
1.14808e-06
1.14808e-06
1.15069e-06
1.1513e-06
1.1511e-06
1.14808e-06
1.14808e-06
1.14808e-06
1.14808e-06
1.14808e-06
1.14808e-06
1.1512e-06
1.1528e-06
1.15285e-06
1.15101e-06
1.14808e-06
1.14808e-06
1.14808e-06
1.14808e-06
1.14808e-06
1.14808e-06
1.15115e-06
1.15256e-06
1.15273e-06
1.15096e-06
1.14808e-06
1.14808e-06
1.14808e-06
1.14808e-06
1.14808e-06
1.14808e-06
1.15112e-06
1.15142e-06
1.15106e-06
1.14808e-06
1.14808e-06
1.14808e-06
1.14808e-06
1.14808e-06
1.14808e-06
1.15118e-06
1.15273e-06
1.15253e-06
1.15069e-06
1.14808e-06
1.14808e-06
1.14808e-06
1.14808e-06
1.15078e-06
1.15129e-06
1.15282e-06
1.15272e-06
1.1513e-06
1.1512e-06
1.15115e-06
1.15112e-06
1.15118e-06
1.15129e-06
1.1526e-06
1.1528e-06
1.15256e-06
1.15142e-06
1.15273e-06
1.15282e-06
1.13749e-06
1.13737e-06
1.13726e-06
1.13574e-06
1.13565e-06
1.13561e-06
1.13571e-06
1.13718e-06
1.13737e-06
1.13726e-06
1.13527e-06
1.13272e-06
1.13272e-06
1.13272e-06
1.13272e-06
1.13533e-06
1.13595e-06
1.13574e-06
1.13272e-06
1.13272e-06
1.13272e-06
1.13272e-06
1.13272e-06
1.13272e-06
1.13585e-06
1.13745e-06
1.13749e-06
1.13565e-06
1.13272e-06
1.13272e-06
1.13272e-06
1.13272e-06
1.13272e-06
1.13272e-06
1.1358e-06
1.13721e-06
1.13737e-06
1.13561e-06
1.13272e-06
1.13272e-06
1.13272e-06
1.13272e-06
1.13272e-06
1.13272e-06
1.13577e-06
1.13606e-06
1.13571e-06
1.13272e-06
1.13272e-06
1.13272e-06
1.13272e-06
1.13272e-06
1.13272e-06
1.13583e-06
1.13738e-06
1.13718e-06
1.13533e-06
1.13272e-06
1.13272e-06
1.13272e-06
1.13272e-06
1.13542e-06
1.13593e-06
1.13747e-06
1.13737e-06
1.13595e-06
1.13585e-06
1.1358e-06
1.13577e-06
1.13583e-06
1.13593e-06
1.13724e-06
1.13745e-06
1.13721e-06
1.13606e-06
1.13738e-06
1.13747e-06
1.12214e-06
1.12202e-06
1.12191e-06
1.12039e-06
1.1203e-06
1.12025e-06
1.12035e-06
1.12182e-06
1.12201e-06
1.12191e-06
1.11992e-06
1.11737e-06
1.11737e-06
1.11737e-06
1.11737e-06
1.11998e-06
1.12059e-06
1.12039e-06
1.11737e-06
1.11737e-06
1.11737e-06
1.11737e-06
1.11737e-06
1.11737e-06
1.12049e-06
1.12209e-06
1.12214e-06
1.1203e-06
1.11737e-06
1.11737e-06
1.11737e-06
1.11737e-06
1.11737e-06
1.11737e-06
1.12044e-06
1.12185e-06
1.12202e-06
1.12025e-06
1.11737e-06
1.11737e-06
1.11737e-06
1.11737e-06
1.11737e-06
1.11737e-06
1.12041e-06
1.12071e-06
1.12035e-06
1.11737e-06
1.11737e-06
1.11737e-06
1.11737e-06
1.11737e-06
1.11737e-06
1.12047e-06
1.12203e-06
1.12182e-06
1.11998e-06
1.11737e-06
1.11737e-06
1.11737e-06
1.11737e-06
1.12007e-06
1.12058e-06
1.12211e-06
1.12201e-06
1.1206e-06
1.12049e-06
1.12044e-06
1.12041e-06
1.12047e-06
1.12058e-06
1.12189e-06
1.12209e-06
1.12185e-06
1.12071e-06
1.12203e-06
1.12211e-06
1.10679e-06
1.10666e-06
1.10656e-06
1.10503e-06
1.10494e-06
1.1049e-06
1.105e-06
1.10647e-06
1.10666e-06
1.10655e-06
1.10456e-06
1.10201e-06
1.10201e-06
1.10201e-06
1.10201e-06
1.10462e-06
1.10524e-06
1.10503e-06
1.10201e-06
1.10201e-06
1.10201e-06
1.10201e-06
1.10201e-06
1.10201e-06
1.10514e-06
1.10674e-06
1.10679e-06
1.10494e-06
1.10201e-06
1.10201e-06
1.10201e-06
1.10201e-06
1.10201e-06
1.10201e-06
1.10509e-06
1.1065e-06
1.10666e-06
1.1049e-06
1.10201e-06
1.10201e-06
1.10201e-06
1.10201e-06
1.10201e-06
1.10201e-06
1.10506e-06
1.10536e-06
1.105e-06
1.10201e-06
1.10201e-06
1.10201e-06
1.10201e-06
1.10201e-06
1.10201e-06
1.10512e-06
1.10667e-06
1.10647e-06
1.10462e-06
1.10201e-06
1.10201e-06
1.10201e-06
1.10201e-06
1.10471e-06
1.10522e-06
1.10676e-06
1.10666e-06
1.10524e-06
1.10514e-06
1.10509e-06
1.10506e-06
1.10512e-06
1.10522e-06
1.10653e-06
1.10674e-06
1.1065e-06
1.10536e-06
1.10667e-06
1.10676e-06
1.09143e-06
1.09131e-06
1.0912e-06
1.08968e-06
1.08959e-06
1.08954e-06
1.08964e-06
1.09112e-06
1.0913e-06
1.0912e-06
1.08921e-06
1.08666e-06
1.08666e-06
1.08666e-06
1.08666e-06
1.08927e-06
1.08989e-06
1.08968e-06
1.08666e-06
1.08666e-06
1.08666e-06
1.08666e-06
1.08666e-06
1.08666e-06
1.08978e-06
1.09138e-06
1.09143e-06
1.08959e-06
1.08666e-06
1.08666e-06
1.08666e-06
1.08666e-06
1.08666e-06
1.08666e-06
1.08974e-06
1.09114e-06
1.09131e-06
1.08954e-06
1.08666e-06
1.08666e-06
1.08666e-06
1.08666e-06
1.08666e-06
1.08666e-06
1.0897e-06
1.09e-06
1.08964e-06
1.08666e-06
1.08666e-06
1.08666e-06
1.08666e-06
1.08666e-06
1.08666e-06
1.08976e-06
1.09132e-06
1.09112e-06
1.08927e-06
1.08666e-06
1.08666e-06
1.08666e-06
1.08666e-06
1.08936e-06
1.08987e-06
1.09141e-06
1.0913e-06
1.08989e-06
1.08978e-06
1.08973e-06
1.08971e-06
1.08976e-06
1.08987e-06
1.09118e-06
1.09138e-06
1.09114e-06
1.09e-06
1.09132e-06
1.09141e-06
1.07608e-06
1.07595e-06
1.07585e-06
1.07432e-06
1.07423e-06
1.07419e-06
1.07429e-06
1.07576e-06
1.07595e-06
1.07585e-06
1.07385e-06
1.0713e-06
1.0713e-06
1.0713e-06
1.0713e-06
1.07391e-06
1.07453e-06
1.07432e-06
1.0713e-06
1.0713e-06
1.0713e-06
1.0713e-06
1.0713e-06
1.0713e-06
1.07443e-06
1.07603e-06
1.07608e-06
1.07423e-06
1.0713e-06
1.0713e-06
1.0713e-06
1.0713e-06
1.0713e-06
1.0713e-06
1.07438e-06
1.07579e-06
1.07595e-06
1.07419e-06
1.0713e-06
1.0713e-06
1.0713e-06
1.0713e-06
1.0713e-06
1.0713e-06
1.07435e-06
1.07465e-06
1.07429e-06
1.0713e-06
1.0713e-06
1.0713e-06
1.0713e-06
1.0713e-06
1.0713e-06
1.07441e-06
1.07596e-06
1.07576e-06
1.07391e-06
1.0713e-06
1.0713e-06
1.0713e-06
1.0713e-06
1.07401e-06
1.07451e-06
1.07605e-06
1.07595e-06
1.07453e-06
1.07443e-06
1.07438e-06
1.07435e-06
1.07441e-06
1.07451e-06
1.07583e-06
1.07603e-06
1.07579e-06
1.07465e-06
1.07596e-06
1.07605e-06
1.06072e-06
1.0606e-06
1.06049e-06
1.05897e-06
1.05888e-06
1.05884e-06
1.05893e-06
1.06041e-06
1.06059e-06
1.06049e-06
1.0585e-06
1.05595e-06
1.05595e-06
1.05595e-06
1.05595e-06
1.05856e-06
1.05918e-06
1.05897e-06
1.05595e-06
1.05595e-06
1.05595e-06
1.05595e-06
1.05595e-06
1.05595e-06
1.05907e-06
1.06067e-06
1.06072e-06
1.05888e-06
1.05595e-06
1.05595e-06
1.05595e-06
1.05595e-06
1.05595e-06
1.05595e-06
1.05903e-06
1.06043e-06
1.0606e-06
1.05884e-06
1.05595e-06
1.05595e-06
1.05595e-06
1.05595e-06
1.05595e-06
1.05595e-06
1.059e-06
1.05929e-06
1.05893e-06
1.05595e-06
1.05595e-06
1.05595e-06
1.05595e-06
1.05595e-06
1.05595e-06
1.05905e-06
1.06061e-06
1.06041e-06
1.05856e-06
1.05595e-06
1.05595e-06
1.05595e-06
1.05595e-06
1.05865e-06
1.05916e-06
1.0607e-06
1.06059e-06
1.05918e-06
1.05907e-06
1.05903e-06
1.059e-06
1.05905e-06
1.05916e-06
1.06047e-06
1.06067e-06
1.06044e-06
1.05929e-06
1.06061e-06
1.0607e-06
1.04537e-06
1.04524e-06
1.04514e-06
1.04361e-06
1.04352e-06
1.04348e-06
1.04358e-06
1.04505e-06
1.04524e-06
1.04514e-06
1.04314e-06
1.04059e-06
1.04059e-06
1.04059e-06
1.04059e-06
1.0432e-06
1.04382e-06
1.04361e-06
1.04059e-06
1.04059e-06
1.04059e-06
1.04059e-06
1.04059e-06
1.04059e-06
1.04372e-06
1.04532e-06
1.04537e-06
1.04352e-06
1.04059e-06
1.04059e-06
1.04059e-06
1.04059e-06
1.04059e-06
1.04059e-06
1.04367e-06
1.04508e-06
1.04524e-06
1.04348e-06
1.04059e-06
1.04059e-06
1.04059e-06
1.04059e-06
1.04059e-06
1.04059e-06
1.04364e-06
1.04394e-06
1.04358e-06
1.04059e-06
1.04059e-06
1.04059e-06
1.04059e-06
1.04059e-06
1.04059e-06
1.0437e-06
1.04525e-06
1.04505e-06
1.0432e-06
1.04059e-06
1.04059e-06
1.04059e-06
1.04059e-06
1.0433e-06
1.0438e-06
1.04534e-06
1.04524e-06
1.04382e-06
1.04372e-06
1.04367e-06
1.04364e-06
1.0437e-06
1.0438e-06
1.04512e-06
1.04532e-06
1.04508e-06
1.04394e-06
1.04525e-06
1.04534e-06
1.03001e-06
1.02989e-06
1.02978e-06
1.02826e-06
1.02817e-06
1.02813e-06
1.02823e-06
1.0297e-06
1.02988e-06
1.02978e-06
1.02779e-06
1.02524e-06
1.02524e-06
1.02524e-06
1.02524e-06
1.02785e-06
1.02847e-06
1.02826e-06
1.02524e-06
1.02524e-06
1.02524e-06
1.02524e-06
1.02524e-06
1.02524e-06
1.02837e-06
1.02996e-06
1.03001e-06
1.02817e-06
1.02524e-06
1.02524e-06
1.02524e-06
1.02524e-06
1.02524e-06
1.02524e-06
1.02832e-06
1.02973e-06
1.02989e-06
1.02813e-06
1.02524e-06
1.02524e-06
1.02524e-06
1.02524e-06
1.02524e-06
1.02524e-06
1.02829e-06
1.02858e-06
1.02823e-06
1.02524e-06
1.02524e-06
1.02524e-06
1.02524e-06
1.02524e-06
1.02524e-06
1.02835e-06
1.0299e-06
1.0297e-06
1.02785e-06
1.02524e-06
1.02524e-06
1.02524e-06
1.02524e-06
1.02794e-06
1.02845e-06
1.02999e-06
1.02988e-06
1.02847e-06
1.02837e-06
1.02832e-06
1.02829e-06
1.02835e-06
1.02845e-06
1.02976e-06
1.02996e-06
1.02973e-06
1.02858e-06
1.0299e-06
1.02999e-06
1.01466e-06
1.01453e-06
1.01443e-06
1.0129e-06
1.01281e-06
1.01277e-06
1.01287e-06
1.01434e-06
1.01453e-06
1.01443e-06
1.01243e-06
1.00988e-06
1.00988e-06
1.00988e-06
1.00988e-06
1.0125e-06
1.01311e-06
1.0129e-06
1.00988e-06
1.00988e-06
1.00988e-06
1.00988e-06
1.00989e-06
1.00988e-06
1.01301e-06
1.01461e-06
1.01466e-06
1.01281e-06
1.00988e-06
1.00988e-06
1.00988e-06
1.00988e-06
1.00988e-06
1.00988e-06
1.01296e-06
1.01437e-06
1.01453e-06
1.01277e-06
1.00988e-06
1.00989e-06
1.00988e-06
1.00988e-06
1.00989e-06
1.00988e-06
1.01293e-06
1.01323e-06
1.01287e-06
1.00988e-06
1.00989e-06
1.00988e-06
1.00988e-06
1.00989e-06
1.00988e-06
1.01299e-06
1.01454e-06
1.01434e-06
1.0125e-06
1.00988e-06
1.00988e-06
1.00988e-06
1.00988e-06
1.01259e-06
1.01309e-06
1.01463e-06
1.01453e-06
1.01311e-06
1.01301e-06
1.01296e-06
1.01293e-06
1.01299e-06
1.01309e-06
1.01441e-06
1.01461e-06
1.01437e-06
1.01323e-06
1.01454e-06
1.01463e-06
9.99303e-07
9.9918e-07
9.99073e-07
9.9755e-07
9.97459e-07
9.97417e-07
9.97516e-07
9.98988e-07
9.99174e-07
9.99073e-07
9.9708e-07
9.9453e-07
9.9453e-07
9.9453e-07
9.9453e-07
9.97141e-07
9.97758e-07
9.9755e-07
9.9453e-07
9.9453e-07
9.9453e-07
9.9453e-07
9.94531e-07
9.9453e-07
9.97656e-07
9.99254e-07
9.99303e-07
9.97459e-07
9.9453e-07
9.9453e-07
9.9453e-07
9.9453e-07
9.9453e-07
9.9453e-07
9.97608e-07
9.99017e-07
9.9918e-07
9.97417e-07
9.9453e-07
9.9453e-07
9.9453e-07
9.9453e-07
9.9453e-07
9.9453e-07
9.97577e-07
9.97873e-07
9.97516e-07
9.9453e-07
9.9453e-07
9.9453e-07
9.9453e-07
9.94531e-07
9.9453e-07
9.97636e-07
9.99188e-07
9.98988e-07
9.97141e-07
9.9453e-07
9.9453e-07
9.9453e-07
9.9453e-07
9.97232e-07
9.97739e-07
9.99278e-07
9.99174e-07
9.97758e-07
9.97656e-07
9.97608e-07
9.97577e-07
9.97636e-07
9.97739e-07
9.99052e-07
9.99254e-07
9.99017e-07
9.97873e-07
9.99188e-07
9.99277e-07
9.83949e-07
9.83826e-07
9.83718e-07
9.82195e-07
9.82105e-07
9.82062e-07
9.82162e-07
9.83633e-07
9.83819e-07
9.83718e-07
9.81726e-07
9.79176e-07
9.79176e-07
9.79176e-07
9.79176e-07
9.81786e-07
9.82403e-07
9.82195e-07
9.79176e-07
9.79176e-07
9.79176e-07
9.79176e-07
9.79176e-07
9.79176e-07
9.82302e-07
9.83899e-07
9.83949e-07
9.82105e-07
9.79176e-07
9.79176e-07
9.79176e-07
9.79176e-07
9.79176e-07
9.79176e-07
9.82253e-07
9.83662e-07
9.83826e-07
9.82062e-07
9.79176e-07
9.79176e-07
9.79176e-07
9.79176e-07
9.79176e-07
9.79176e-07
9.82223e-07
9.82519e-07
9.82162e-07
9.79176e-07
9.79176e-07
9.79176e-07
9.79176e-07
9.79176e-07
9.79176e-07
9.82281e-07
9.83834e-07
9.83633e-07
9.81786e-07
9.79176e-07
9.79176e-07
9.79176e-07
9.79176e-07
9.81877e-07
9.82385e-07
9.83923e-07
9.83819e-07
9.82404e-07
9.82302e-07
9.82253e-07
9.82223e-07