/*--------------------------------*- C++ -*----------------------------------*\
| =========                 |                                                 |
| \\      /  F ield         | OpenFOAM: The Open Source CFD Toolbox           |
|  \\    /   O peration     | Version:  v2012                                 |
|   \\  /    A nd           | Website:  www.openfoam.com                      |
|    \\/     M anipulation  |                                                 |
\*---------------------------------------------------------------------------*/
FoamFile
{
    version     2.0;
    format      ascii;
    class       volScalarField;
    location    "13.5";
    object      p;
}
// * * * * * * * * * * * * * * * * * * * * * * * * * * * * * * * * * * * * * //

dimensions      [0 2 -2 0 0 0 0];


internalField   nonuniform List<scalar> 
244288
(
1.49847e-06
1.49862e-06
1.49858e-06
1.49848e-06
1.49842e-06
1.49849e-06
1.49859e-06
1.49862e-06
1.49865e-06
1.49842e-06
1.49816e-06
1.49806e-06
1.49819e-06
1.49846e-06
1.49866e-06
1.49858e-06
1.49842e-06
1.49801e-06
1.49766e-06
1.49754e-06
1.49769e-06
1.49806e-06
1.49846e-06
1.49857e-06
1.49848e-06
1.49816e-06
1.49766e-06
1.49726e-06
1.49713e-06
1.4973e-06
1.49772e-06
1.49822e-06
1.49849e-06
1.49847e-06
1.49842e-06
1.49806e-06
1.49754e-06
1.49713e-06
1.497e-06
1.49717e-06
1.4976e-06
1.49812e-06
1.49844e-06
1.49849e-06
1.49819e-06
1.49769e-06
1.4973e-06
1.49717e-06
1.49734e-06
1.49775e-06
1.49824e-06
1.4985e-06
1.49859e-06
1.49846e-06
1.49806e-06
1.49772e-06
1.4976e-06
1.49775e-06
1.49811e-06
1.4985e-06
1.49858e-06
1.49866e-06
1.49846e-06
1.49822e-06
1.49812e-06
1.49824e-06
1.4985e-06
1.49866e-06
1.49857e-06
1.49849e-06
1.49844e-06
1.4985e-06
1.49858e-06
1.47567e-06
1.47531e-06
1.47513e-06
1.47371e-06
1.47362e-06
1.47363e-06
1.47364e-06
1.47507e-06
1.47519e-06
1.47513e-06
1.47326e-06
1.47082e-06
1.47081e-06
1.47081e-06
1.47082e-06
1.47331e-06
1.4738e-06
1.47371e-06
1.47082e-06
1.47077e-06
1.4708e-06
1.4708e-06
1.47077e-06
1.47082e-06
1.47371e-06
1.47533e-06
1.47567e-06
1.47362e-06
1.47081e-06
1.4708e-06
1.47085e-06
1.47085e-06
1.4708e-06
1.47081e-06
1.47364e-06
1.47504e-06
1.47531e-06
1.47363e-06
1.47081e-06
1.4708e-06
1.47085e-06
1.47085e-06
1.4708e-06
1.47081e-06
1.47361e-06
1.47394e-06
1.47364e-06
1.47082e-06
1.47077e-06
1.4708e-06
1.4708e-06
1.47077e-06
1.47082e-06
1.47367e-06
1.47521e-06
1.47507e-06
1.47331e-06
1.47082e-06
1.47081e-06
1.47081e-06
1.47082e-06
1.47325e-06
1.47381e-06
1.47535e-06
1.47519e-06
1.4738e-06
1.47371e-06
1.47364e-06
1.47361e-06
1.47367e-06
1.47381e-06
1.47504e-06
1.47533e-06
1.47503e-06
1.47394e-06
1.47521e-06
1.47535e-06
1.45995e-06
1.45982e-06
1.45972e-06
1.45818e-06
1.4581e-06
1.45807e-06
1.45814e-06
1.45963e-06
1.45982e-06
1.45972e-06
1.45773e-06
1.45512e-06
1.45511e-06
1.45511e-06
1.45512e-06
1.45777e-06
1.45836e-06
1.45818e-06
1.45512e-06
1.45509e-06
1.45509e-06
1.45509e-06
1.45509e-06
1.45512e-06
1.45824e-06
1.45988e-06
1.45994e-06
1.4581e-06
1.45511e-06
1.45509e-06
1.4551e-06
1.4551e-06
1.45509e-06
1.45511e-06
1.45817e-06
1.45963e-06
1.45981e-06
1.45807e-06
1.45511e-06
1.45509e-06
1.4551e-06
1.4551e-06
1.45509e-06
1.45511e-06
1.45813e-06
1.45846e-06
1.45814e-06
1.45512e-06
1.45509e-06
1.45509e-06
1.45509e-06
1.45509e-06
1.45512e-06
1.45821e-06
1.4598e-06
1.45963e-06
1.45777e-06
1.45512e-06
1.45511e-06
1.45511e-06
1.45512e-06
1.45777e-06
1.45832e-06
1.45991e-06
1.45982e-06
1.45836e-06
1.45824e-06
1.45817e-06
1.45813e-06
1.45821e-06
1.45832e-06
1.45967e-06
1.45988e-06
1.45962e-06
1.45846e-06
1.4598e-06
1.45991e-06
1.4443e-06
1.44417e-06
1.44407e-06
1.44251e-06
1.44242e-06
1.44239e-06
1.44248e-06
1.44398e-06
1.44417e-06
1.44407e-06
1.44205e-06
1.43943e-06
1.43943e-06
1.43943e-06
1.43943e-06
1.44209e-06
1.44271e-06
1.44251e-06
1.43943e-06
1.43942e-06
1.43942e-06
1.43942e-06
1.43942e-06
1.43943e-06
1.44259e-06
1.44424e-06
1.4443e-06
1.44242e-06
1.43943e-06
1.43942e-06
1.43942e-06
1.43942e-06
1.43942e-06
1.43943e-06
1.44253e-06
1.44399e-06
1.44417e-06
1.44239e-06
1.43943e-06
1.43942e-06
1.43942e-06
1.43942e-06
1.43942e-06
1.43943e-06
1.4425e-06
1.44282e-06
1.44248e-06
1.43943e-06
1.43942e-06
1.43942e-06
1.43942e-06
1.43942e-06
1.43943e-06
1.44256e-06
1.44416e-06
1.44398e-06
1.44209e-06
1.43943e-06
1.43943e-06
1.43943e-06
1.43943e-06
1.44214e-06
1.44268e-06
1.44427e-06
1.44417e-06
1.44271e-06
1.44259e-06
1.44253e-06
1.4425e-06
1.44256e-06
1.44268e-06
1.44403e-06
1.44424e-06
1.44399e-06
1.44282e-06
1.44415e-06
1.44427e-06
1.42863e-06
1.4285e-06
1.4284e-06
1.42684e-06
1.42675e-06
1.42671e-06
1.4268e-06
1.4283e-06
1.4285e-06
1.4284e-06
1.42637e-06
1.42375e-06
1.42375e-06
1.42375e-06
1.42375e-06
1.42641e-06
1.42703e-06
1.42684e-06
1.42375e-06
1.42374e-06
1.42375e-06
1.42375e-06
1.42374e-06
1.42375e-06
1.42692e-06
1.42857e-06
1.42863e-06
1.42675e-06
1.42375e-06
1.42375e-06
1.42375e-06
1.42375e-06
1.42375e-06
1.42375e-06
1.42686e-06
1.42832e-06
1.4285e-06
1.42671e-06
1.42375e-06
1.42375e-06
1.42375e-06
1.42375e-06
1.42375e-06
1.42375e-06
1.42683e-06
1.42715e-06
1.4268e-06
1.42375e-06
1.42374e-06
1.42375e-06
1.42375e-06
1.42374e-06
1.42375e-06
1.42689e-06
1.42849e-06
1.4283e-06
1.42641e-06
1.42375e-06
1.42375e-06
1.42375e-06
1.42375e-06
1.42647e-06
1.42701e-06
1.42859e-06
1.4285e-06
1.42703e-06
1.42692e-06
1.42686e-06
1.42683e-06
1.42689e-06
1.42701e-06
1.42836e-06
1.42857e-06
1.42832e-06
1.42715e-06
1.42849e-06
1.42859e-06
1.41296e-06
1.41283e-06
1.41273e-06
1.41116e-06
1.41107e-06
1.41103e-06
1.41113e-06
1.41263e-06
1.41282e-06
1.41272e-06
1.4107e-06
1.40807e-06
1.40807e-06
1.40807e-06
1.40807e-06
1.41074e-06
1.41136e-06
1.41116e-06
1.40807e-06
1.40807e-06
1.40807e-06
1.40807e-06
1.40807e-06
1.40807e-06
1.41125e-06
1.41289e-06
1.41296e-06
1.41107e-06
1.40807e-06
1.40807e-06
1.40807e-06
1.40807e-06
1.40807e-06
1.40807e-06
1.41119e-06
1.41265e-06
1.41283e-06
1.41103e-06
1.40807e-06
1.40807e-06
1.40807e-06
1.40807e-06
1.40807e-06
1.40807e-06
1.41116e-06
1.41148e-06
1.41113e-06
1.40807e-06
1.40807e-06
1.40807e-06
1.40807e-06
1.40807e-06
1.40807e-06
1.41122e-06
1.41281e-06
1.41263e-06
1.41074e-06
1.40807e-06
1.40807e-06
1.40807e-06
1.40807e-06
1.4108e-06
1.41134e-06
1.41292e-06
1.41282e-06
1.41136e-06
1.41125e-06
1.41119e-06
1.41116e-06
1.41122e-06
1.41134e-06
1.41269e-06
1.41289e-06
1.41265e-06
1.41148e-06
1.41281e-06
1.41292e-06
1.39728e-06
1.39715e-06
1.39705e-06
1.39549e-06
1.3954e-06
1.39536e-06
1.39545e-06
1.39695e-06
1.39715e-06
1.39705e-06
1.39502e-06
1.39239e-06
1.39239e-06
1.39239e-06
1.39239e-06
1.39506e-06
1.39568e-06
1.39549e-06
1.39239e-06
1.39239e-06
1.39239e-06
1.39239e-06
1.39239e-06
1.39239e-06
1.39557e-06
1.39722e-06
1.39729e-06
1.3954e-06
1.39239e-06
1.39239e-06
1.3924e-06
1.3924e-06
1.39239e-06
1.39239e-06
1.39551e-06
1.39697e-06
1.39717e-06
1.39536e-06
1.39239e-06
1.39239e-06
1.3924e-06
1.3924e-06
1.39239e-06
1.39239e-06
1.39548e-06
1.3958e-06
1.39545e-06
1.39239e-06
1.39239e-06
1.39239e-06
1.39239e-06
1.39239e-06
1.39239e-06
1.39555e-06
1.39714e-06
1.39695e-06
1.39506e-06
1.39239e-06
1.39239e-06
1.39239e-06
1.39239e-06
1.39512e-06
1.39566e-06
1.39725e-06
1.39715e-06
1.39568e-06
1.39557e-06
1.39551e-06
1.39548e-06
1.39555e-06
1.39566e-06
1.39701e-06
1.39722e-06
1.39697e-06
1.3958e-06
1.39714e-06
1.39725e-06
1.38161e-06
1.38148e-06
1.38138e-06
1.37982e-06
1.37972e-06
1.37968e-06
1.37978e-06
1.38128e-06
1.38148e-06
1.38138e-06
1.37935e-06
1.37672e-06
1.37672e-06
1.37672e-06
1.37672e-06
1.37939e-06
1.38001e-06
1.37982e-06
1.37672e-06
1.37672e-06
1.37672e-06
1.37672e-06
1.37672e-06
1.37672e-06
1.3799e-06
1.38154e-06
1.38161e-06
1.37972e-06
1.37672e-06
1.37672e-06
1.37672e-06
1.37672e-06
1.37672e-06
1.37672e-06
1.37984e-06
1.3813e-06
1.38148e-06
1.37968e-06
1.37672e-06
1.37672e-06
1.37672e-06
1.37672e-06
1.37672e-06
1.37672e-06
1.37981e-06
1.38013e-06
1.37978e-06
1.37672e-06
1.37672e-06
1.37672e-06
1.37672e-06
1.37672e-06
1.37672e-06
1.37987e-06
1.38147e-06
1.38128e-06
1.37939e-06
1.37672e-06
1.37672e-06
1.37672e-06
1.37672e-06
1.37945e-06
1.37999e-06
1.38157e-06
1.38148e-06
1.38001e-06
1.3799e-06
1.37984e-06
1.37981e-06
1.37987e-06
1.37999e-06
1.38134e-06
1.38154e-06
1.3813e-06
1.38013e-06
1.38147e-06
1.38157e-06
1.36593e-06
1.36581e-06
1.3657e-06
1.36414e-06
1.36405e-06
1.36401e-06
1.36411e-06
1.36561e-06
1.3658e-06
1.3657e-06
1.36367e-06
1.36105e-06
1.36105e-06
1.36105e-06
1.36105e-06
1.36371e-06
1.36434e-06
1.36414e-06
1.36105e-06
1.36105e-06
1.36105e-06
1.36105e-06
1.36105e-06
1.36105e-06
1.36422e-06
1.36587e-06
1.36593e-06
1.36405e-06
1.36105e-06
1.36105e-06
1.36105e-06
1.36105e-06
1.36105e-06
1.36105e-06
1.36417e-06
1.36562e-06
1.3658e-06
1.36401e-06
1.36105e-06
1.36105e-06
1.36105e-06
1.36105e-06
1.36105e-06
1.36105e-06
1.36414e-06
1.36446e-06
1.36411e-06
1.36105e-06
1.36105e-06
1.36105e-06
1.36105e-06
1.36105e-06
1.36105e-06
1.3642e-06
1.36579e-06
1.36561e-06
1.36371e-06
1.36105e-06
1.36105e-06
1.36105e-06
1.36105e-06
1.36377e-06
1.36432e-06
1.3659e-06
1.3658e-06
1.36434e-06
1.36422e-06
1.36417e-06
1.36414e-06
1.3642e-06
1.36432e-06
1.36566e-06
1.36587e-06
1.36562e-06
1.36446e-06
1.36579e-06
1.3659e-06
1.35026e-06
1.35013e-06
1.35003e-06
1.34847e-06
1.34838e-06
1.34833e-06
1.34843e-06
1.34993e-06
1.35013e-06
1.35003e-06
1.348e-06
1.34537e-06
1.34537e-06
1.34537e-06
1.34537e-06
1.34804e-06
1.34866e-06
1.34847e-06
1.34537e-06
1.34537e-06
1.34537e-06
1.34537e-06
1.34537e-06
1.34537e-06
1.34855e-06
1.3502e-06
1.35026e-06
1.34838e-06
1.34537e-06
1.34537e-06
1.34537e-06
1.34537e-06
1.34537e-06
1.34537e-06
1.34849e-06
1.34995e-06
1.35013e-06
1.34834e-06
1.34537e-06
1.34537e-06
1.34537e-06
1.34537e-06
1.34537e-06
1.34537e-06
1.34846e-06
1.34878e-06
1.34843e-06
1.34537e-06
1.34537e-06
1.34537e-06
1.34537e-06
1.34537e-06
1.34537e-06
1.34852e-06
1.35012e-06
1.34993e-06
1.34804e-06
1.34537e-06
1.34537e-06
1.34537e-06
1.34537e-06
1.3481e-06
1.34864e-06
1.35022e-06
1.35013e-06
1.34866e-06
1.34855e-06
1.34849e-06
1.34846e-06
1.34852e-06
1.34864e-06
1.34999e-06
1.3502e-06
1.34995e-06
1.34878e-06
1.35012e-06
1.35022e-06
1.33459e-06
1.33446e-06
1.33436e-06
1.33279e-06
1.3327e-06
1.33266e-06
1.33276e-06
1.33426e-06
1.33446e-06
1.33436e-06
1.33233e-06
1.3297e-06
1.3297e-06
1.3297e-06
1.3297e-06
1.33237e-06
1.33299e-06
1.33279e-06
1.3297e-06
1.3297e-06
1.3297e-06
1.3297e-06
1.3297e-06
1.3297e-06
1.33288e-06
1.33452e-06
1.33459e-06
1.3327e-06
1.3297e-06
1.3297e-06
1.3297e-06
1.3297e-06
1.3297e-06
1.3297e-06
1.33282e-06
1.33428e-06
1.33446e-06
1.33266e-06
1.3297e-06
1.3297e-06
1.3297e-06
1.3297e-06
1.3297e-06
1.3297e-06
1.33279e-06
1.33311e-06
1.33276e-06
1.3297e-06
1.3297e-06
1.3297e-06
1.3297e-06
1.3297e-06
1.3297e-06
1.33285e-06
1.33444e-06
1.33426e-06
1.33237e-06
1.3297e-06
1.3297e-06
1.3297e-06
1.3297e-06
1.33243e-06
1.33297e-06
1.33455e-06
1.33446e-06
1.33299e-06
1.33288e-06
1.33282e-06
1.33279e-06
1.33285e-06
1.33297e-06
1.33432e-06
1.33452e-06
1.33428e-06
1.33311e-06
1.33444e-06
1.33455e-06
1.31891e-06
1.31879e-06
1.31868e-06
1.31712e-06
1.31703e-06
1.31699e-06
1.31708e-06
1.31859e-06
1.31878e-06
1.31868e-06
1.31665e-06
1.31403e-06
1.31403e-06
1.31403e-06
1.31403e-06
1.31669e-06
1.31732e-06
1.31712e-06
1.31403e-06
1.31403e-06
1.31403e-06
1.31403e-06
1.31403e-06
1.31403e-06
1.3172e-06
1.31885e-06
1.31891e-06
1.31703e-06
1.31403e-06
1.31403e-06
1.31403e-06
1.31403e-06
1.31403e-06
1.31403e-06
1.31715e-06
1.3186e-06
1.31878e-06
1.31699e-06
1.31403e-06
1.31403e-06
1.31403e-06
1.31403e-06
1.31403e-06
1.31403e-06
1.31711e-06
1.31744e-06
1.31708e-06
1.31403e-06
1.31403e-06
1.31403e-06
1.31403e-06
1.31403e-06
1.31403e-06
1.31718e-06
1.31877e-06
1.31859e-06
1.31669e-06
1.31403e-06
1.31403e-06
1.31403e-06
1.31403e-06
1.31675e-06
1.3173e-06
1.31888e-06
1.31878e-06
1.31732e-06
1.3172e-06
1.31715e-06
1.31711e-06
1.31718e-06
1.3173e-06
1.31864e-06
1.31885e-06
1.3186e-06
1.31744e-06
1.31877e-06
1.31888e-06
1.30324e-06
1.30311e-06
1.30301e-06
1.30145e-06
1.30135e-06
1.30131e-06
1.30141e-06
1.30291e-06
1.30311e-06
1.30301e-06
1.30098e-06
1.29835e-06
1.29835e-06
1.29835e-06
1.29835e-06
1.30102e-06
1.30164e-06
1.30145e-06
1.29835e-06
1.29835e-06
1.29835e-06
1.29835e-06
1.29835e-06
1.29835e-06
1.30153e-06
1.30317e-06
1.30324e-06
1.30135e-06
1.29835e-06
1.29835e-06
1.29835e-06
1.29835e-06
1.29835e-06
1.29835e-06
1.30147e-06
1.30293e-06
1.30311e-06
1.30131e-06
1.29835e-06
1.29835e-06
1.29835e-06
1.29835e-06
1.29835e-06
1.29835e-06
1.30144e-06
1.30176e-06
1.30141e-06
1.29835e-06
1.29835e-06
1.29835e-06
1.29835e-06
1.29835e-06
1.29835e-06
1.3015e-06
1.3031e-06
1.30291e-06
1.30102e-06
1.29835e-06
1.29835e-06
1.29835e-06
1.29835e-06
1.30108e-06
1.30162e-06
1.3032e-06
1.30311e-06
1.30164e-06
1.30153e-06
1.30147e-06
1.30144e-06
1.3015e-06
1.30162e-06
1.30297e-06
1.30317e-06
1.30293e-06
1.30176e-06
1.3031e-06
1.3032e-06
1.28756e-06
1.28744e-06
1.28733e-06
1.28577e-06
1.28568e-06
1.28564e-06
1.28574e-06
1.28724e-06
1.28743e-06
1.28733e-06
1.2853e-06
1.28268e-06
1.28268e-06
1.28268e-06
1.28268e-06
1.28534e-06
1.28597e-06
1.28577e-06
1.28268e-06
1.28268e-06
1.28268e-06
1.28268e-06
1.28268e-06
1.28268e-06
1.28585e-06
1.2875e-06
1.28757e-06
1.28568e-06
1.28268e-06
1.28268e-06
1.28268e-06
1.28268e-06
1.28268e-06
1.28268e-06
1.2858e-06
1.28725e-06
1.28745e-06
1.28564e-06
1.28268e-06
1.28268e-06
1.28268e-06
1.28268e-06
1.28268e-06
1.28268e-06
1.28577e-06
1.28609e-06
1.28573e-06
1.28268e-06
1.28268e-06
1.28268e-06
1.28268e-06
1.28268e-06
1.28268e-06
1.28583e-06
1.28742e-06
1.28724e-06
1.28534e-06
1.28268e-06
1.28268e-06
1.28268e-06
1.28268e-06
1.2854e-06
1.28595e-06
1.28753e-06
1.28743e-06
1.28597e-06
1.28585e-06
1.2858e-06
1.28576e-06
1.28583e-06
1.28595e-06
1.28729e-06
1.2875e-06
1.28725e-06
1.28609e-06
1.28742e-06
1.28753e-06
1.27189e-06
1.27176e-06
1.27166e-06
1.2701e-06
1.27e-06
1.26996e-06
1.27006e-06
1.27156e-06
1.27176e-06
1.27166e-06
1.26963e-06
1.267e-06
1.267e-06
1.267e-06
1.267e-06
1.26967e-06
1.27029e-06
1.2701e-06
1.267e-06
1.267e-06
1.267e-06
1.267e-06
1.267e-06
1.267e-06
1.27018e-06
1.27182e-06
1.27189e-06
1.27e-06
1.267e-06
1.267e-06
1.267e-06
1.267e-06
1.267e-06
1.267e-06
1.27012e-06
1.27158e-06
1.27176e-06
1.26996e-06
1.267e-06
1.267e-06
1.267e-06
1.267e-06
1.267e-06
1.267e-06
1.27009e-06
1.27041e-06
1.27006e-06
1.267e-06
1.267e-06
1.267e-06
1.267e-06
1.267e-06
1.267e-06
1.27015e-06
1.27175e-06
1.27156e-06
1.26967e-06
1.267e-06
1.267e-06
1.267e-06
1.267e-06
1.26973e-06
1.27027e-06
1.27185e-06
1.27176e-06
1.27029e-06
1.27018e-06
1.27012e-06
1.27009e-06
1.27015e-06
1.27027e-06
1.27162e-06
1.27182e-06
1.27158e-06
1.27041e-06
1.27175e-06
1.27185e-06
1.25622e-06
1.25609e-06
1.25598e-06
1.25442e-06
1.25433e-06
1.25429e-06
1.25439e-06
1.25589e-06
1.25608e-06
1.25598e-06
1.25395e-06
1.25133e-06
1.25133e-06
1.25133e-06
1.25133e-06
1.25399e-06
1.25462e-06
1.25442e-06
1.25133e-06
1.25133e-06
1.25133e-06
1.25133e-06
1.25133e-06
1.25133e-06
1.2545e-06
1.25615e-06
1.25622e-06
1.25433e-06
1.25133e-06
1.25133e-06
1.25133e-06
1.25133e-06
1.25133e-06
1.25133e-06
1.25445e-06
1.2559e-06
1.25609e-06
1.25429e-06
1.25133e-06
1.25133e-06
1.25133e-06
1.25133e-06
1.25133e-06
1.25133e-06
1.25442e-06
1.25474e-06
1.25439e-06
1.25133e-06
1.25133e-06
1.25133e-06
1.25133e-06
1.25133e-06
1.25133e-06
1.25448e-06
1.25607e-06
1.25589e-06
1.25399e-06
1.25133e-06
1.25133e-06
1.25133e-06
1.25133e-06
1.25405e-06
1.2546e-06
1.25618e-06
1.25608e-06
1.25462e-06
1.2545e-06
1.25445e-06
1.25442e-06
1.25448e-06
1.2546e-06
1.25595e-06
1.25615e-06
1.2559e-06
1.25474e-06
1.25607e-06
1.25618e-06
1.24054e-06
1.24041e-06
1.24031e-06
1.23875e-06
1.23866e-06
1.23861e-06
1.23871e-06
1.24021e-06
1.24041e-06
1.24031e-06
1.23828e-06
1.23565e-06
1.23565e-06
1.23565e-06
1.23565e-06
1.23832e-06
1.23894e-06
1.23875e-06
1.23565e-06
1.23565e-06
1.23565e-06
1.23565e-06
1.23565e-06
1.23565e-06
1.23883e-06
1.24048e-06
1.24054e-06
1.23866e-06
1.23565e-06
1.23565e-06
1.23565e-06
1.23565e-06
1.23565e-06
1.23565e-06
1.23877e-06
1.24023e-06
1.24041e-06
1.23861e-06
1.23565e-06
1.23565e-06
1.23565e-06
1.23565e-06
1.23565e-06
1.23565e-06
1.23874e-06
1.23906e-06
1.23871e-06
1.23565e-06
1.23565e-06
1.23565e-06
1.23565e-06
1.23565e-06
1.23565e-06
1.2388e-06
1.2404e-06
1.24021e-06
1.23832e-06
1.23565e-06
1.23565e-06
1.23565e-06
1.23565e-06
1.23838e-06
1.23892e-06
1.2405e-06
1.24041e-06
1.23894e-06
1.23883e-06
1.23877e-06
1.23874e-06
1.2388e-06
1.23892e-06
1.24027e-06
1.24048e-06
1.24023e-06
1.23906e-06
1.2404e-06
1.2405e-06
1.22487e-06
1.22474e-06
1.22463e-06
1.22307e-06
1.22298e-06
1.22294e-06
1.22304e-06
1.22454e-06
1.22473e-06
1.22463e-06
1.22261e-06
1.21998e-06
1.21998e-06
1.21998e-06
1.21998e-06
1.22265e-06
1.22327e-06
1.22307e-06
1.21998e-06
1.21998e-06
1.21998e-06
1.21998e-06
1.21998e-06
1.21998e-06
1.22316e-06
1.2248e-06
1.22487e-06
1.22298e-06
1.21998e-06
1.21998e-06
1.21998e-06
1.21998e-06
1.21998e-06
1.21998e-06
1.2231e-06
1.22456e-06
1.22474e-06
1.22294e-06
1.21998e-06
1.21998e-06
1.21998e-06
1.21998e-06
1.21998e-06
1.21998e-06
1.22307e-06
1.22339e-06
1.22304e-06
1.21998e-06
1.21998e-06
1.21998e-06
1.21998e-06
1.21998e-06
1.21998e-06
1.22313e-06
1.22472e-06
1.22454e-06
1.22265e-06
1.21998e-06
1.21998e-06
1.21998e-06
1.21998e-06
1.22271e-06
1.22325e-06
1.22483e-06
1.22473e-06
1.22327e-06
1.22316e-06
1.2231e-06
1.22307e-06
1.22313e-06
1.22325e-06
1.2246e-06
1.2248e-06
1.22456e-06
1.22339e-06
1.22472e-06
1.22483e-06
1.20919e-06
1.20906e-06
1.20896e-06
1.2074e-06
1.20731e-06
1.20727e-06
1.20736e-06
1.20887e-06
1.20906e-06
1.20896e-06
1.20693e-06
1.20431e-06
1.20431e-06
1.20431e-06
1.20431e-06
1.20697e-06
1.2076e-06
1.2074e-06
1.20431e-06
1.20431e-06
1.20431e-06
1.20431e-06
1.20431e-06
1.20431e-06
1.20748e-06
1.20913e-06
1.20919e-06
1.20731e-06
1.20431e-06
1.20431e-06
1.20431e-06
1.20431e-06
1.20431e-06
1.20431e-06
1.20743e-06
1.20888e-06
1.20906e-06
1.20727e-06
1.20431e-06
1.20431e-06
1.20431e-06
1.20431e-06
1.20431e-06
1.20431e-06
1.20739e-06
1.20772e-06
1.20736e-06
1.20431e-06
1.20431e-06
1.20431e-06
1.20431e-06
1.20431e-06
1.20431e-06
1.20746e-06
1.20905e-06
1.20887e-06
1.20697e-06
1.20431e-06
1.20431e-06
1.20431e-06
1.20431e-06
1.20703e-06
1.20758e-06
1.20916e-06
1.20906e-06
1.2076e-06
1.20748e-06
1.20743e-06
1.20739e-06
1.20746e-06
1.20758e-06
1.20892e-06
1.20913e-06
1.20888e-06
1.20771e-06
1.20905e-06
1.20916e-06
1.19352e-06
1.19339e-06
1.19329e-06
1.19173e-06
1.19164e-06
1.19159e-06
1.19169e-06
1.19319e-06
1.19339e-06
1.19329e-06
1.19126e-06
1.18863e-06
1.18863e-06
1.18863e-06
1.18863e-06
1.1913e-06
1.19192e-06
1.19173e-06
1.18863e-06
1.18863e-06
1.18863e-06
1.18863e-06
1.18863e-06
1.18863e-06
1.19181e-06
1.19346e-06
1.19352e-06
1.19164e-06
1.18863e-06
1.18863e-06
1.18863e-06
1.18863e-06
1.18863e-06
1.18863e-06
1.19175e-06
1.19321e-06
1.19339e-06
1.19159e-06
1.18863e-06
1.18863e-06
1.18863e-06
1.18863e-06
1.18863e-06
1.18863e-06
1.19172e-06
1.19204e-06
1.19169e-06
1.18863e-06
1.18863e-06
1.18863e-06
1.18863e-06
1.18863e-06
1.18863e-06
1.19178e-06
1.19338e-06
1.19319e-06
1.1913e-06
1.18863e-06
1.18863e-06
1.18863e-06
1.18863e-06
1.19136e-06
1.1919e-06
1.19348e-06
1.19339e-06
1.19192e-06
1.19181e-06
1.19175e-06
1.19172e-06
1.19178e-06
1.1919e-06
1.19325e-06
1.19345e-06
1.19321e-06
1.19204e-06
1.19338e-06
1.19348e-06
1.17785e-06
1.17772e-06
1.17761e-06
1.17605e-06
1.17596e-06
1.17592e-06
1.17602e-06
1.17752e-06
1.17771e-06
1.17761e-06
1.17558e-06
1.17296e-06
1.17296e-06
1.17296e-06
1.17296e-06
1.17563e-06
1.17625e-06
1.17605e-06
1.17296e-06
1.17296e-06
1.17296e-06
1.17296e-06
1.17296e-06
1.17296e-06
1.17613e-06
1.17778e-06
1.17785e-06
1.17596e-06
1.17296e-06
1.17296e-06
1.17296e-06
1.17296e-06
1.17296e-06
1.17296e-06
1.17608e-06
1.17754e-06
1.17772e-06
1.17592e-06
1.17296e-06
1.17296e-06
1.17296e-06
1.17296e-06
1.17296e-06
1.17296e-06
1.17605e-06
1.17637e-06
1.17602e-06
1.17296e-06
1.17296e-06
1.17296e-06
1.17296e-06
1.17296e-06
1.17296e-06
1.17611e-06
1.1777e-06
1.17752e-06
1.17563e-06
1.17296e-06
1.17296e-06
1.17296e-06
1.17296e-06
1.17569e-06
1.17623e-06
1.17781e-06
1.17771e-06
1.17625e-06
1.17613e-06
1.17608e-06
1.17605e-06
1.17611e-06
1.17623e-06
1.17758e-06
1.17778e-06
1.17753e-06
1.17637e-06
1.1777e-06
1.17781e-06
1.16217e-06
1.16204e-06
1.16194e-06
1.16038e-06
1.16029e-06
1.16025e-06
1.16034e-06
1.16184e-06
1.16204e-06
1.16194e-06
1.15991e-06
1.15728e-06
1.15728e-06
1.15728e-06
1.15728e-06
1.15995e-06
1.16057e-06
1.16038e-06
1.15728e-06
1.15728e-06
1.15728e-06
1.15728e-06
1.15728e-06
1.15728e-06
1.16046e-06
1.16211e-06
1.16217e-06
1.16029e-06
1.15728e-06
1.15728e-06
1.15728e-06
1.15728e-06
1.15728e-06
1.15728e-06
1.1604e-06
1.16186e-06
1.16204e-06
1.16025e-06
1.15728e-06
1.15728e-06
1.15728e-06
1.15728e-06
1.15728e-06
1.15728e-06
1.16037e-06
1.16069e-06
1.16034e-06
1.15728e-06
1.15728e-06
1.15728e-06
1.15728e-06
1.15728e-06
1.15728e-06
1.16044e-06
1.16203e-06
1.16184e-06
1.15995e-06
1.15728e-06
1.15728e-06
1.15728e-06
1.15728e-06
1.16001e-06
1.16055e-06
1.16213e-06
1.16204e-06
1.16057e-06
1.16046e-06
1.1604e-06
1.16037e-06
1.16043e-06
1.16055e-06
1.1619e-06
1.16211e-06
1.16186e-06
1.16069e-06
1.16203e-06
1.16213e-06
1.1465e-06
1.14637e-06
1.14626e-06
1.1447e-06
1.14461e-06
1.14457e-06
1.14467e-06
1.14617e-06
1.14636e-06
1.14626e-06
1.14423e-06
1.14161e-06
1.14161e-06
1.14161e-06
1.14161e-06
1.14428e-06
1.1449e-06
1.1447e-06
1.14161e-06
1.14161e-06
1.14161e-06
1.14161e-06
1.14161e-06
1.14161e-06
1.14479e-06
1.14643e-06
1.1465e-06
1.14461e-06
1.14161e-06
1.14161e-06
1.14161e-06
1.14161e-06
1.14161e-06
1.14161e-06
1.14473e-06
1.14619e-06
1.14637e-06
1.14457e-06
1.14161e-06
1.14161e-06
1.14161e-06
1.14161e-06
1.14161e-06
1.14161e-06
1.1447e-06
1.14502e-06
1.14467e-06
1.14161e-06
1.14161e-06
1.14161e-06
1.14161e-06
1.14161e-06
1.14161e-06
1.14476e-06
1.14635e-06
1.14617e-06
1.14428e-06
1.14161e-06
1.14161e-06
1.14161e-06
1.14161e-06
1.14434e-06
1.14488e-06
1.14646e-06
1.14636e-06
1.1449e-06
1.14479e-06
1.14473e-06
1.1447e-06
1.14476e-06
1.14488e-06
1.14623e-06
1.14643e-06
1.14619e-06
1.14502e-06
1.14635e-06
1.14646e-06
1.13082e-06
1.13069e-06
1.13059e-06
1.12903e-06
1.12894e-06
1.1289e-06
1.12899e-06
1.13049e-06
1.13069e-06
1.13059e-06
1.12856e-06
1.12593e-06
1.12593e-06
1.12593e-06
1.12593e-06
1.1286e-06
1.12922e-06
1.12903e-06
1.12593e-06
1.12593e-06
1.12593e-06
1.12593e-06
1.12593e-06
1.12593e-06
1.12911e-06
1.13076e-06
1.13082e-06
1.12894e-06
1.12593e-06
1.12593e-06
1.12593e-06
1.12593e-06
1.12593e-06
1.12593e-06
1.12906e-06
1.13051e-06
1.13069e-06
1.1289e-06
1.12593e-06
1.12593e-06
1.12593e-06
1.12593e-06
1.12593e-06
1.12593e-06
1.12902e-06
1.12934e-06
1.12899e-06
1.12593e-06
1.12593e-06
1.12593e-06
1.12593e-06
1.12593e-06
1.12593e-06
1.12909e-06
1.13068e-06
1.13049e-06
1.1286e-06
1.12593e-06
1.12593e-06
1.12593e-06
1.12593e-06
1.12866e-06
1.1292e-06
1.13079e-06
1.13069e-06
1.12922e-06
1.12911e-06
1.12905e-06
1.12902e-06
1.12909e-06
1.1292e-06
1.13055e-06
1.13076e-06
1.13051e-06
1.12935e-06
1.13068e-06
1.13079e-06
1.11515e-06
1.11502e-06
1.11492e-06
1.11335e-06
1.11326e-06
1.11322e-06
1.11332e-06
1.11482e-06
1.11502e-06
1.11491e-06
1.11289e-06
1.11026e-06
1.11026e-06
1.11026e-06
1.11026e-06
1.11293e-06
1.11355e-06
1.11335e-06
1.11026e-06
1.11026e-06
1.11026e-06
1.11026e-06
1.11026e-06
1.11026e-06
1.11344e-06
1.11508e-06
1.11515e-06
1.11326e-06
1.11026e-06
1.11026e-06
1.11026e-06
1.11026e-06
1.11026e-06
1.11026e-06
1.11338e-06
1.11484e-06
1.11502e-06
1.11322e-06
1.11026e-06
1.11026e-06
1.11026e-06
1.11026e-06
1.11026e-06
1.11026e-06
1.11335e-06
1.11367e-06
1.11332e-06
1.11026e-06
1.11026e-06
1.11026e-06
1.11026e-06
1.11026e-06
1.11026e-06
1.11341e-06
1.11501e-06
1.11482e-06
1.11293e-06
1.11026e-06
1.11026e-06
1.11026e-06
1.11026e-06
1.11299e-06
1.11353e-06
1.11511e-06
1.11501e-06
1.11355e-06
1.11344e-06
1.11338e-06
1.11335e-06
1.11341e-06
1.11353e-06
1.11488e-06
1.11508e-06
1.11483e-06
1.11367e-06
1.11501e-06
1.11511e-06
1.09947e-06
1.09934e-06
1.09924e-06
1.09768e-06
1.09759e-06
1.09755e-06
1.09764e-06
1.09915e-06
1.09934e-06
1.09924e-06
1.09721e-06
1.09459e-06
1.09459e-06
1.09459e-06
1.09459e-06
1.09725e-06
1.09788e-06
1.09768e-06
1.09459e-06
1.09459e-06
1.09459e-06
1.09459e-06
1.09459e-06
1.09459e-06
1.09776e-06
1.09941e-06
1.09947e-06
1.09759e-06
1.09459e-06
1.09459e-06
1.09459e-06
1.09459e-06
1.09459e-06
1.09459e-06
1.09771e-06
1.09916e-06
1.09934e-06
1.09755e-06
1.09459e-06
1.09459e-06
1.09459e-06
1.09459e-06
1.09459e-06
1.09459e-06
1.09767e-06
1.098e-06
1.09764e-06
1.09459e-06
1.09459e-06
1.09459e-06
1.09459e-06
1.09459e-06
1.09459e-06
1.09774e-06
1.09933e-06
1.09914e-06
1.09725e-06
1.09459e-06
1.09459e-06
1.09459e-06
1.09459e-06
1.09731e-06
1.09786e-06
1.09944e-06
1.09934e-06
1.09788e-06
1.09776e-06
1.09771e-06
1.09767e-06
1.09774e-06
1.09786e-06
1.0992e-06
1.09941e-06
1.09916e-06
1.098e-06
1.09933e-06
1.09944e-06
1.0838e-06
1.08367e-06
1.08357e-06
1.08201e-06
1.08191e-06
1.08187e-06
1.08197e-06
1.08347e-06
1.08367e-06
1.08357e-06
1.08154e-06
1.07891e-06
1.07891e-06
1.07891e-06
1.07891e-06
1.08158e-06
1.0822e-06
1.08201e-06
1.07891e-06
1.07891e-06
1.07891e-06
1.07891e-06
1.07891e-06
1.07891e-06
1.08209e-06
1.08373e-06
1.0838e-06
1.08191e-06
1.07891e-06
1.07891e-06
1.07891e-06
1.07891e-06
1.07891e-06
1.07891e-06
1.08203e-06
1.08349e-06
1.08367e-06
1.08187e-06
1.07891e-06
1.07891e-06
1.07891e-06
1.07891e-06
1.07891e-06
1.07891e-06
1.082e-06
1.08232e-06
1.08197e-06
1.07891e-06
1.07891e-06
1.07891e-06
1.07891e-06
1.07891e-06
1.07891e-06
1.08206e-06
1.08366e-06
1.08347e-06
1.08158e-06
1.07891e-06
1.07891e-06
1.07891e-06
1.07891e-06
1.08164e-06
1.08218e-06
1.08376e-06
1.08367e-06
1.0822e-06
1.08209e-06
1.08203e-06
1.082e-06
1.08206e-06
1.08218e-06
1.08353e-06
1.08373e-06
1.08349e-06
1.08232e-06
1.08366e-06
1.08376e-06
1.06813e-06
1.068e-06
1.06789e-06
1.06633e-06
1.06624e-06
1.0662e-06
1.0663e-06
1.0678e-06
1.06799e-06
1.06789e-06
1.06586e-06
1.06324e-06
1.06324e-06
1.06324e-06
1.06324e-06
1.06591e-06
1.06653e-06
1.06633e-06
1.06324e-06
1.06324e-06
1.06324e-06
1.06324e-06
1.06324e-06
1.06324e-06
1.06641e-06
1.06806e-06
1.06813e-06
1.06624e-06
1.06324e-06
1.06324e-06
1.06324e-06
1.06324e-06
1.06324e-06
1.06324e-06
1.06636e-06
1.06782e-06
1.068e-06
1.0662e-06
1.06324e-06
1.06324e-06
1.06324e-06
1.06324e-06
1.06324e-06
1.06324e-06
1.06633e-06
1.06665e-06
1.0663e-06
1.06324e-06
1.06324e-06
1.06324e-06
1.06324e-06
1.06324e-06
1.06324e-06
1.06639e-06
1.06798e-06
1.0678e-06
1.06591e-06
1.06324e-06
1.06324e-06
1.06324e-06
1.06324e-06
1.06597e-06
1.06651e-06
1.06809e-06
1.06799e-06
1.06653e-06
1.06641e-06
1.06636e-06
1.06633e-06
1.06639e-06
1.06651e-06
1.06786e-06
1.06806e-06
1.06782e-06
1.06665e-06
1.06798e-06
1.06809e-06
1.05245e-06
1.05232e-06
1.05222e-06
1.05066e-06
1.05057e-06
1.05053e-06
1.05062e-06
1.05212e-06
1.05232e-06
1.05222e-06
1.05019e-06
1.04756e-06
1.04756e-06
1.04756e-06
1.04756e-06
1.05023e-06
1.05085e-06
1.05066e-06
1.04756e-06
1.04756e-06
1.04756e-06
1.04756e-06
1.04756e-06
1.04756e-06
1.05074e-06
1.05239e-06
1.05245e-06
1.05057e-06
1.04756e-06
1.04756e-06
1.04756e-06
1.04756e-06
1.04756e-06
1.04756e-06
1.05068e-06
1.05214e-06
1.05232e-06
1.05053e-06
1.04756e-06
1.04756e-06
1.04756e-06
1.04756e-06
1.04756e-06
1.04756e-06
1.05065e-06
1.05097e-06
1.05062e-06
1.04756e-06
1.04756e-06
1.04756e-06
1.04756e-06
1.04756e-06
1.04756e-06
1.05072e-06
1.05231e-06
1.05212e-06
1.05023e-06
1.04756e-06
1.04756e-06
1.04756e-06
1.04756e-06
1.05029e-06
1.05083e-06
1.05242e-06
1.05232e-06
1.05085e-06
1.05074e-06
1.05069e-06
1.05065e-06
1.05072e-06
1.05083e-06
1.05218e-06
1.05239e-06
1.05214e-06
1.05097e-06
1.05231e-06
1.05242e-06
1.03678e-06
1.03665e-06
1.03655e-06
1.03498e-06
1.03489e-06
1.03485e-06
1.03495e-06
1.03645e-06
1.03665e-06
1.03655e-06
1.03452e-06
1.03189e-06
1.03189e-06
1.03189e-06
1.03189e-06
1.03456e-06
1.03518e-06
1.03498e-06
1.03189e-06
1.03189e-06
1.03189e-06
1.03189e-06
1.03189e-06
1.03189e-06
1.03507e-06
1.03671e-06
1.03678e-06
1.03489e-06
1.03189e-06
1.03189e-06
1.03189e-06
1.03189e-06
1.03189e-06
1.03189e-06
1.03501e-06
1.03647e-06
1.03665e-06
1.03485e-06
1.03189e-06
1.03189e-06
1.03189e-06
1.03189e-06
1.03189e-06
1.03189e-06
1.03498e-06
1.0353e-06
1.03495e-06
1.03189e-06
1.03189e-06
1.03189e-06
1.03189e-06
1.03189e-06
1.03189e-06
1.03504e-06
1.03664e-06
1.03645e-06
1.03456e-06
1.03189e-06
1.03189e-06
1.03189e-06
1.03189e-06
1.03462e-06
1.03516e-06
1.03674e-06
1.03665e-06
1.03518e-06
1.03507e-06
1.03501e-06
1.03498e-06
1.03504e-06
1.03516e-06
1.03651e-06
1.03671e-06
1.03647e-06
1.0353e-06
1.03664e-06
1.03674e-06
1.0211e-06
1.02098e-06
1.02087e-06
1.01931e-06
1.01922e-06
1.01918e-06
1.01928e-06
1.02078e-06
1.02097e-06
1.02087e-06
1.01884e-06
1.01622e-06
1.01622e-06
1.01622e-06
1.01622e-06
1.01888e-06
1.01951e-06
1.01931e-06
1.01622e-06
1.01622e-06
1.01622e-06
1.01622e-06
1.01622e-06
1.01622e-06
1.01939e-06
1.02104e-06
1.0211e-06
1.01922e-06
1.01622e-06
1.01622e-06
1.01622e-06
1.01622e-06
1.01622e-06
1.01622e-06
1.01934e-06
1.02079e-06
1.02098e-06
1.01918e-06
1.01622e-06
1.01622e-06
1.01622e-06
1.01622e-06
1.01622e-06
1.01622e-06
1.01931e-06
1.01963e-06
1.01928e-06
1.01622e-06
1.01622e-06
1.01622e-06
1.01622e-06
1.01622e-06
1.01622e-06
1.01937e-06
1.02096e-06
1.02078e-06
1.01888e-06
1.01622e-06
1.01622e-06
1.01622e-06
1.01622e-06
1.01894e-06
1.01949e-06
1.02107e-06
1.02097e-06
1.01951e-06
1.01939e-06
1.01934e-06
1.01931e-06
1.01937e-06
1.01949e-06
1.02083e-06
1.02104e-06
1.02079e-06
1.01963e-06
1.02096e-06
1.02107e-06
1.00543e-06
1.0053e-06
1.0052e-06
1.00364e-06
1.00354e-06
1.0035e-06
1.0036e-06
1.0051e-06
1.0053e-06
1.0052e-06
1.00317e-06
1.00054e-06
1.00054e-06
1.00054e-06
1.00054e-06
1.00321e-06
1.00383e-06
1.00364e-06
1.00054e-06
1.00054e-06
1.00054e-06
1.00054e-06
1.00054e-06
1.00054e-06
1.00372e-06
1.00536e-06
1.00543e-06
1.00354e-06
1.00054e-06
1.00054e-06
1.00054e-06
1.00054e-06
1.00054e-06
1.00054e-06
1.00366e-06
1.00512e-06
1.0053e-06
1.0035e-06
1.00054e-06
1.00054e-06
1.00054e-06
1.00054e-06
1.00054e-06
1.00054e-06
1.00363e-06
1.00395e-06
1.0036e-06
1.00054e-06
1.00054e-06
1.00054e-06
1.00054e-06
1.00054e-06
1.00054e-06
1.00369e-06
1.00529e-06
1.0051e-06
1.00321e-06
1.00054e-06
1.00054e-06
1.00054e-06
1.00054e-06
1.00327e-06
1.00381e-06
1.00539e-06
1.0053e-06
1.00383e-06
1.00372e-06
1.00366e-06