/*--------------------------------*- C++ -*----------------------------------*\
| =========                 |                                                 |
| \\      /  F ield         | OpenFOAM: The Open Source CFD Toolbox           |
|  \\    /   O peration     | Version:  v2012                                 |
|   \\  /    A nd           | Website:  www.openfoam.com                      |
|    \\/     M anipulation  |                                                 |
\*---------------------------------------------------------------------------*/
FoamFile
{
    version     2.0;
    format      ascii;
    class       volScalarField;
    location    "10";
    object      p;
}
// * * * * * * * * * * * * * * * * * * * * * * * * * * * * * * * * * * * * * //

dimensions      [0 2 -2 0 0 0 0];


internalField   nonuniform List<scalar> 
244288
(
1.55868e-06
1.55893e-06
1.55888e-06
1.55875e-06
1.55868e-06
1.55876e-06
1.55889e-06
1.55893e-06
1.55895e-06
1.55871e-06
1.55843e-06
1.55832e-06
1.55846e-06
1.55875e-06
1.55896e-06
1.55888e-06
1.55871e-06
1.55828e-06
1.55791e-06
1.55778e-06
1.55794e-06
1.55833e-06
1.55875e-06
1.55888e-06
1.55875e-06
1.55843e-06
1.55791e-06
1.55749e-06
1.55735e-06
1.55753e-06
1.55797e-06
1.55849e-06
1.55875e-06
1.55868e-06
1.55868e-06
1.55832e-06
1.55778e-06
1.55735e-06
1.5572e-06
1.55739e-06
1.55784e-06
1.55839e-06
1.55869e-06
1.55876e-06
1.55846e-06
1.55794e-06
1.55753e-06
1.55739e-06
1.55757e-06
1.55801e-06
1.55851e-06
1.55877e-06
1.55889e-06
1.55875e-06
1.55833e-06
1.55797e-06
1.55784e-06
1.558e-06
1.55839e-06
1.55879e-06
1.55889e-06
1.55896e-06
1.55875e-06
1.55849e-06
1.55839e-06
1.55851e-06
1.55879e-06
1.55896e-06
1.55888e-06
1.55875e-06
1.55869e-06
1.55877e-06
1.55888e-06
1.53425e-06
1.53385e-06
1.53358e-06
1.53212e-06
1.53204e-06
1.53204e-06
1.53206e-06
1.5335e-06
1.53365e-06
1.53358e-06
1.53169e-06
1.52914e-06
1.52914e-06
1.52914e-06
1.52914e-06
1.53167e-06
1.53213e-06
1.53213e-06
1.52914e-06
1.52908e-06
1.52911e-06
1.52912e-06
1.52908e-06
1.52914e-06
1.53202e-06
1.53375e-06
1.53425e-06
1.53204e-06
1.52914e-06
1.52911e-06
1.52916e-06
1.52916e-06
1.52911e-06
1.52914e-06
1.53193e-06
1.53349e-06
1.53385e-06
1.53204e-06
1.52914e-06
1.52911e-06
1.52916e-06
1.52916e-06
1.52911e-06
1.52914e-06
1.53189e-06
1.53232e-06
1.53206e-06
1.52914e-06
1.52908e-06
1.52911e-06
1.52911e-06
1.52908e-06
1.52914e-06
1.53197e-06
1.5336e-06
1.5335e-06
1.53167e-06
1.52914e-06
1.52914e-06
1.52914e-06
1.52914e-06
1.53151e-06
1.53215e-06
1.53379e-06
1.53365e-06
1.53213e-06
1.53202e-06
1.53193e-06
1.53189e-06
1.53196e-06
1.53214e-06
1.53379e-06
1.53375e-06
1.53349e-06
1.53232e-06
1.5336e-06
1.53378e-06
1.51784e-06
1.5177e-06
1.51763e-06
1.51603e-06
1.51594e-06
1.51591e-06
1.51598e-06
1.51751e-06
1.51772e-06
1.51763e-06
1.5156e-06
1.51284e-06
1.51283e-06
1.51283e-06
1.51284e-06
1.51558e-06
1.51616e-06
1.51603e-06
1.51284e-06
1.51281e-06
1.51281e-06
1.51281e-06
1.51281e-06
1.51283e-06
1.51601e-06
1.51775e-06
1.51784e-06
1.51594e-06
1.51283e-06
1.51281e-06
1.51281e-06
1.51281e-06
1.51281e-06
1.51283e-06
1.51591e-06
1.51747e-06
1.5177e-06
1.51591e-06
1.51283e-06
1.51281e-06
1.51281e-06
1.51281e-06
1.51281e-06
1.51283e-06
1.51587e-06
1.51626e-06
1.51598e-06
1.51283e-06
1.51281e-06
1.51281e-06
1.51281e-06
1.5128e-06
1.51283e-06
1.51596e-06
1.51763e-06
1.51751e-06
1.51558e-06
1.51283e-06
1.51283e-06
1.51283e-06
1.51283e-06
1.51548e-06
1.51612e-06
1.51779e-06
1.51772e-06
1.51615e-06
1.51601e-06
1.51591e-06
1.51587e-06
1.51595e-06
1.51612e-06
1.51761e-06
1.51774e-06
1.51747e-06
1.51626e-06
1.51763e-06
1.51778e-06
1.50162e-06
1.50148e-06
1.5014e-06
1.49977e-06
1.49968e-06
1.49964e-06
1.49973e-06
1.50127e-06
1.5015e-06
1.5014e-06
1.49931e-06
1.49655e-06
1.49655e-06
1.49655e-06
1.49655e-06
1.49931e-06
1.49992e-06
1.49977e-06
1.49655e-06
1.49654e-06
1.49654e-06
1.49654e-06
1.49654e-06
1.49655e-06
1.49979e-06
1.50153e-06
1.50162e-06
1.49968e-06
1.49655e-06
1.49654e-06
1.49654e-06
1.49654e-06
1.49654e-06
1.49655e-06
1.49971e-06
1.50126e-06
1.50148e-06
1.49964e-06
1.49655e-06
1.49654e-06
1.49654e-06
1.49654e-06
1.49654e-06
1.49655e-06
1.49967e-06
1.50005e-06
1.49973e-06
1.49655e-06
1.49654e-06
1.49654e-06
1.49654e-06
1.49654e-06
1.49655e-06
1.49974e-06
1.50142e-06
1.50127e-06
1.49931e-06
1.49655e-06
1.49655e-06
1.49655e-06
1.49655e-06
1.49928e-06
1.49989e-06
1.50156e-06
1.5015e-06
1.49992e-06
1.49979e-06
1.49971e-06
1.49967e-06
1.49974e-06
1.49989e-06
1.50153e-06
1.50152e-06
1.50126e-06
1.50005e-06
1.50142e-06
1.50156e-06
1.48536e-06
1.48522e-06
1.48514e-06
1.4835e-06
1.48341e-06
1.48337e-06
1.48346e-06
1.48501e-06
1.48525e-06
1.48514e-06
1.48303e-06
1.48027e-06
1.48027e-06
1.48027e-06
1.48027e-06
1.48304e-06
1.48365e-06
1.4835e-06
1.48027e-06
1.48027e-06
1.48027e-06
1.48027e-06
1.48027e-06
1.48027e-06
1.48353e-06
1.48526e-06
1.48536e-06
1.48341e-06
1.48027e-06
1.48027e-06
1.48027e-06
1.48027e-06
1.48027e-06
1.48027e-06
1.48345e-06
1.485e-06
1.48522e-06
1.48337e-06
1.48027e-06
1.48027e-06
1.48027e-06
1.48027e-06
1.48027e-06
1.48027e-06
1.48342e-06
1.48379e-06
1.48346e-06
1.48027e-06
1.48027e-06
1.48027e-06
1.48027e-06
1.48027e-06
1.48027e-06
1.48349e-06
1.48516e-06
1.48501e-06
1.48304e-06
1.48027e-06
1.48027e-06
1.48027e-06
1.48027e-06
1.48302e-06
1.48364e-06
1.4853e-06
1.48525e-06
1.48365e-06
1.48352e-06
1.48345e-06
1.48342e-06
1.48349e-06
1.48363e-06
1.4853e-06
1.48526e-06
1.485e-06
1.48379e-06
1.48516e-06
1.4853e-06
1.4691e-06
1.46896e-06
1.46888e-06
1.46723e-06
1.46714e-06
1.4671e-06
1.46719e-06
1.46874e-06
1.46898e-06
1.46887e-06
1.46676e-06
1.464e-06
1.464e-06
1.464e-06
1.464e-06
1.46677e-06
1.46738e-06
1.46723e-06
1.464e-06
1.464e-06
1.464e-06
1.464e-06
1.464e-06
1.464e-06
1.46726e-06
1.469e-06
1.4691e-06
1.46714e-06
1.464e-06
1.464e-06
1.464e-06
1.464e-06
1.464e-06
1.464e-06
1.46719e-06
1.46873e-06
1.46896e-06
1.4671e-06
1.464e-06
1.464e-06
1.464e-06
1.464e-06
1.464e-06
1.464e-06
1.46715e-06
1.46753e-06
1.46719e-06
1.464e-06
1.464e-06
1.464e-06
1.464e-06
1.464e-06
1.464e-06
1.46722e-06
1.46889e-06
1.46874e-06
1.46677e-06
1.464e-06
1.464e-06
1.464e-06
1.464e-06
1.46675e-06
1.46737e-06
1.46904e-06
1.46898e-06
1.46738e-06
1.46726e-06
1.46719e-06
1.46715e-06
1.46722e-06
1.46736e-06
1.46905e-06
1.469e-06
1.46873e-06
1.46753e-06
1.46889e-06
1.46903e-06
1.45283e-06
1.45269e-06
1.45261e-06
1.45096e-06
1.45087e-06
1.45083e-06
1.45092e-06
1.45247e-06
1.45271e-06
1.4526e-06
1.45049e-06
1.44773e-06
1.44773e-06
1.44773e-06
1.44773e-06
1.4505e-06
1.45111e-06
1.45096e-06
1.44773e-06
1.44773e-06
1.44773e-06
1.44773e-06
1.44773e-06
1.44773e-06
1.45099e-06
1.45273e-06
1.45283e-06
1.45087e-06
1.44773e-06
1.44773e-06
1.44773e-06
1.44773e-06
1.44773e-06
1.44773e-06
1.45092e-06
1.45246e-06
1.45269e-06
1.45083e-06
1.44773e-06
1.44773e-06
1.44773e-06
1.44773e-06
1.44773e-06
1.44773e-06
1.45088e-06
1.45126e-06
1.45092e-06
1.44773e-06
1.44773e-06
1.44773e-06
1.44773e-06
1.44773e-06
1.44773e-06
1.45095e-06
1.45262e-06
1.45247e-06
1.4505e-06
1.44773e-06
1.44773e-06
1.44773e-06
1.44773e-06
1.45048e-06
1.4511e-06
1.45277e-06
1.45271e-06
1.45111e-06
1.45099e-06
1.45092e-06
1.45088e-06
1.45095e-06
1.45109e-06
1.45278e-06
1.45273e-06
1.45246e-06
1.45126e-06
1.45262e-06
1.45276e-06
1.43656e-06
1.43642e-06
1.43634e-06
1.43469e-06
1.4346e-06
1.43456e-06
1.43465e-06
1.4362e-06
1.43644e-06
1.43633e-06
1.43422e-06
1.43146e-06
1.43146e-06
1.43146e-06
1.43146e-06
1.43423e-06
1.43484e-06
1.43469e-06
1.43146e-06
1.43146e-06
1.43146e-06
1.43146e-06
1.43146e-06
1.43146e-06
1.43472e-06
1.43646e-06
1.43656e-06
1.4346e-06
1.43146e-06
1.43146e-06
1.43146e-06
1.43146e-06
1.43146e-06
1.43146e-06
1.43465e-06
1.43619e-06
1.43642e-06
1.43456e-06
1.43146e-06
1.43146e-06
1.43146e-06
1.43146e-06
1.43146e-06
1.43146e-06
1.43461e-06
1.43499e-06
1.43465e-06
1.43146e-06
1.43146e-06
1.43146e-06
1.43146e-06
1.43146e-06
1.43146e-06
1.43468e-06
1.43635e-06
1.4362e-06
1.43423e-06
1.43146e-06
1.43146e-06
1.43146e-06
1.43146e-06
1.43421e-06
1.43483e-06
1.4365e-06
1.43644e-06
1.43484e-06
1.43472e-06
1.43465e-06
1.43461e-06
1.43468e-06
1.43482e-06
1.43651e-06
1.43646e-06
1.43619e-06
1.43499e-06
1.43635e-06
1.43649e-06
1.42029e-06
1.42015e-06
1.42007e-06
1.41842e-06
1.41833e-06
1.41829e-06
1.41838e-06
1.41993e-06
1.42017e-06
1.42006e-06
1.41795e-06
1.41519e-06
1.41519e-06
1.41519e-06
1.41519e-06
1.41796e-06
1.41857e-06
1.41842e-06
1.41519e-06
1.41519e-06
1.41519e-06
1.41519e-06
1.41519e-06
1.41519e-06
1.41845e-06
1.42019e-06
1.42029e-06
1.41833e-06
1.41519e-06
1.41519e-06
1.41519e-06
1.41519e-06
1.41519e-06
1.41519e-06
1.41838e-06
1.41992e-06
1.42015e-06
1.41829e-06
1.41519e-06
1.41519e-06
1.41519e-06
1.41519e-06
1.41519e-06
1.41519e-06
1.41834e-06
1.41872e-06
1.41838e-06
1.41519e-06
1.41519e-06
1.41519e-06
1.41519e-06
1.41519e-06
1.41519e-06
1.41841e-06
1.42008e-06
1.41993e-06
1.41796e-06
1.41519e-06
1.41519e-06
1.41519e-06
1.41519e-06
1.41794e-06
1.41856e-06
1.42023e-06
1.42017e-06
1.41857e-06
1.41845e-06
1.41838e-06
1.41834e-06
1.41841e-06
1.41855e-06
1.42024e-06
1.42019e-06
1.41992e-06
1.41872e-06
1.42008e-06
1.42022e-06
1.40402e-06
1.40388e-06
1.4038e-06
1.40215e-06
1.40206e-06
1.40202e-06
1.40211e-06
1.40366e-06
1.4039e-06
1.40379e-06
1.40168e-06
1.39892e-06
1.39892e-06
1.39892e-06
1.39892e-06
1.40169e-06
1.4023e-06
1.40215e-06
1.39892e-06
1.39892e-06
1.39892e-06
1.39892e-06
1.39892e-06
1.39892e-06
1.40218e-06
1.40392e-06
1.40401e-06
1.40206e-06
1.39892e-06
1.39892e-06
1.39892e-06
1.39892e-06
1.39892e-06
1.39892e-06
1.40211e-06
1.40365e-06
1.40388e-06
1.40202e-06
1.39892e-06
1.39892e-06
1.39892e-06
1.39892e-06
1.39892e-06
1.39892e-06
1.40207e-06
1.40245e-06
1.40211e-06
1.39892e-06
1.39892e-06
1.39892e-06
1.39892e-06
1.39892e-06
1.39892e-06
1.40214e-06
1.40381e-06
1.40366e-06
1.40169e-06
1.39892e-06
1.39892e-06
1.39892e-06
1.39892e-06
1.40167e-06
1.40229e-06
1.40396e-06
1.4039e-06
1.4023e-06
1.40218e-06
1.40211e-06
1.40207e-06
1.40214e-06
1.40228e-06
1.40397e-06
1.40392e-06
1.40365e-06
1.40245e-06
1.40381e-06
1.40396e-06
1.38775e-06
1.38761e-06
1.38753e-06
1.38588e-06
1.38579e-06
1.38575e-06
1.38584e-06
1.38739e-06
1.38763e-06
1.38752e-06
1.38541e-06
1.38265e-06
1.38265e-06
1.38265e-06
1.38265e-06
1.38542e-06
1.38603e-06
1.38588e-06
1.38265e-06
1.38265e-06
1.38265e-06
1.38265e-06
1.38265e-06
1.38265e-06
1.38591e-06
1.38765e-06
1.38775e-06
1.38579e-06
1.38265e-06
1.38265e-06
1.38265e-06
1.38265e-06
1.38265e-06
1.38265e-06
1.38584e-06
1.38738e-06
1.3876e-06
1.38575e-06
1.38265e-06
1.38265e-06
1.38265e-06
1.38265e-06
1.38265e-06
1.38265e-06
1.3858e-06
1.38618e-06
1.38584e-06
1.38265e-06
1.38265e-06
1.38265e-06
1.38265e-06
1.38265e-06
1.38265e-06
1.38587e-06
1.38754e-06
1.38739e-06
1.38541e-06
1.38265e-06
1.38265e-06
1.38265e-06
1.38265e-06
1.3854e-06
1.38602e-06
1.38769e-06
1.38763e-06
1.38603e-06
1.38591e-06
1.38584e-06
1.3858e-06
1.38587e-06
1.38601e-06
1.3877e-06
1.38765e-06
1.38738e-06
1.38618e-06
1.38754e-06
1.38768e-06
1.37148e-06
1.37134e-06
1.37126e-06
1.36961e-06
1.36952e-06
1.36948e-06
1.36957e-06
1.37112e-06
1.37136e-06
1.37125e-06
1.36914e-06
1.36638e-06
1.36638e-06
1.36638e-06
1.36638e-06
1.36915e-06
1.36976e-06
1.36961e-06
1.36638e-06
1.36638e-06
1.36638e-06
1.36638e-06
1.36638e-06
1.36638e-06
1.36964e-06
1.37138e-06
1.37148e-06
1.36952e-06
1.36638e-06
1.36638e-06
1.36638e-06
1.36638e-06
1.36638e-06
1.36638e-06
1.36957e-06
1.37111e-06
1.37134e-06
1.36948e-06
1.36638e-06
1.36638e-06
1.36638e-06
1.36638e-06
1.36638e-06
1.36638e-06
1.36953e-06
1.36991e-06
1.36957e-06
1.36638e-06
1.36638e-06
1.36638e-06
1.36638e-06
1.36638e-06
1.36638e-06
1.3696e-06
1.37127e-06
1.37112e-06
1.36914e-06
1.36638e-06
1.36638e-06
1.36638e-06
1.36638e-06
1.36913e-06
1.36975e-06
1.37142e-06
1.37136e-06
1.36976e-06
1.36964e-06
1.36957e-06
1.36953e-06
1.3696e-06
1.36974e-06
1.37143e-06
1.37138e-06
1.37111e-06
1.36991e-06
1.37127e-06
1.37141e-06
1.35521e-06
1.35507e-06
1.35499e-06
1.35334e-06
1.35325e-06
1.35321e-06
1.3533e-06
1.35485e-06
1.35509e-06
1.35498e-06
1.35287e-06
1.35011e-06
1.35011e-06
1.35011e-06
1.35011e-06
1.35287e-06
1.35349e-06
1.35334e-06
1.35011e-06
1.35011e-06
1.35011e-06
1.35011e-06
1.35011e-06
1.35011e-06
1.35337e-06
1.35511e-06
1.35521e-06
1.35325e-06
1.35011e-06
1.35011e-06
1.35011e-06
1.35011e-06
1.35011e-06
1.35011e-06
1.3533e-06
1.35484e-06
1.35507e-06
1.35321e-06
1.35011e-06
1.35011e-06
1.35011e-06
1.35011e-06
1.35011e-06
1.35011e-06
1.35326e-06
1.35364e-06
1.3533e-06
1.35011e-06
1.35011e-06
1.35011e-06
1.35011e-06
1.35011e-06
1.35011e-06
1.35333e-06
1.355e-06
1.35485e-06
1.35287e-06
1.35011e-06
1.35011e-06
1.35011e-06
1.35011e-06
1.35286e-06
1.35348e-06
1.35515e-06
1.35509e-06
1.35349e-06
1.35337e-06
1.3533e-06
1.35326e-06
1.35333e-06
1.35347e-06
1.35516e-06
1.35511e-06
1.35484e-06
1.35364e-06
1.355e-06
1.35514e-06
1.33894e-06
1.3388e-06
1.33871e-06
1.33707e-06
1.33698e-06
1.33694e-06
1.33703e-06
1.33858e-06
1.33882e-06
1.33871e-06
1.3366e-06
1.33384e-06
1.33384e-06
1.33384e-06
1.33384e-06
1.3366e-06
1.33722e-06
1.33707e-06
1.33384e-06
1.33384e-06
1.33384e-06
1.33384e-06
1.33384e-06
1.33384e-06
1.3371e-06
1.33884e-06
1.33894e-06
1.33698e-06
1.33384e-06
1.33384e-06
1.33384e-06
1.33384e-06
1.33384e-06
1.33384e-06
1.33703e-06
1.33857e-06
1.3388e-06
1.33694e-06
1.33384e-06
1.33384e-06
1.33384e-06
1.33384e-06
1.33384e-06
1.33384e-06
1.33699e-06
1.33737e-06
1.33703e-06
1.33384e-06
1.33384e-06
1.33384e-06
1.33384e-06
1.33384e-06
1.33384e-06
1.33706e-06
1.33873e-06
1.33858e-06
1.3366e-06
1.33384e-06
1.33384e-06
1.33384e-06
1.33384e-06
1.33659e-06
1.33721e-06
1.33888e-06
1.33882e-06
1.33722e-06
1.3371e-06
1.33703e-06
1.33699e-06
1.33706e-06
1.3372e-06
1.33889e-06
1.33884e-06
1.33857e-06
1.33737e-06
1.33873e-06
1.33887e-06
1.32267e-06
1.32253e-06
1.32244e-06
1.3208e-06
1.32071e-06
1.32067e-06
1.32076e-06
1.32231e-06
1.32255e-06
1.32244e-06
1.32033e-06
1.31757e-06
1.31757e-06
1.31757e-06
1.31757e-06
1.32033e-06
1.32095e-06
1.3208e-06
1.31757e-06
1.31757e-06
1.31757e-06
1.31757e-06
1.31757e-06
1.31757e-06
1.32083e-06
1.32257e-06
1.32267e-06
1.32071e-06
1.31757e-06
1.31757e-06
1.31757e-06
1.31757e-06
1.31757e-06
1.31757e-06
1.32075e-06
1.3223e-06
1.32253e-06
1.32067e-06
1.31757e-06
1.31757e-06
1.31757e-06
1.31757e-06
1.31757e-06
1.31757e-06
1.32072e-06
1.3211e-06
1.32076e-06
1.31757e-06
1.31757e-06
1.31757e-06
1.31757e-06
1.31757e-06
1.31757e-06
1.32079e-06
1.32246e-06
1.32231e-06
1.32033e-06
1.31757e-06
1.31757e-06
1.31757e-06
1.31757e-06
1.32032e-06
1.32094e-06
1.3226e-06
1.32255e-06
1.32095e-06
1.32083e-06
1.32075e-06
1.32072e-06
1.32079e-06
1.32093e-06
1.32262e-06
1.32257e-06
1.3223e-06
1.3211e-06
1.32246e-06
1.3226e-06
1.3064e-06
1.30626e-06
1.30617e-06
1.30453e-06
1.30444e-06
1.3044e-06
1.30449e-06
1.30604e-06
1.30628e-06
1.30617e-06
1.30406e-06
1.3013e-06
1.3013e-06
1.3013e-06
1.3013e-06
1.30406e-06
1.30467e-06
1.30453e-06
1.3013e-06
1.3013e-06
1.3013e-06
1.3013e-06
1.3013e-06
1.3013e-06
1.30456e-06
1.30629e-06
1.30639e-06
1.30444e-06
1.3013e-06
1.3013e-06
1.3013e-06
1.3013e-06
1.3013e-06
1.3013e-06
1.30448e-06
1.30603e-06
1.30625e-06
1.3044e-06
1.3013e-06
1.3013e-06
1.3013e-06
1.3013e-06
1.3013e-06
1.3013e-06
1.30445e-06
1.30483e-06
1.30449e-06
1.3013e-06
1.3013e-06
1.3013e-06
1.3013e-06
1.3013e-06
1.3013e-06
1.30452e-06
1.30619e-06
1.30604e-06
1.30406e-06
1.3013e-06
1.3013e-06
1.3013e-06
1.3013e-06
1.30405e-06
1.30467e-06
1.30633e-06
1.30628e-06
1.30468e-06
1.30456e-06
1.30448e-06
1.30445e-06
1.30452e-06
1.30466e-06
1.30635e-06
1.30629e-06
1.30603e-06
1.30483e-06
1.30619e-06
1.30633e-06
1.29012e-06
1.28998e-06
1.2899e-06
1.28826e-06
1.28817e-06
1.28813e-06
1.28822e-06
1.28977e-06
1.29001e-06
1.2899e-06
1.28779e-06
1.28503e-06
1.28503e-06
1.28503e-06
1.28503e-06
1.28779e-06
1.2884e-06
1.28826e-06
1.28503e-06
1.28503e-06
1.28503e-06
1.28503e-06
1.28503e-06
1.28503e-06
1.28828e-06
1.29002e-06
1.29012e-06
1.28817e-06
1.28503e-06
1.28503e-06
1.28503e-06
1.28503e-06
1.28503e-06
1.28503e-06
1.28821e-06
1.28976e-06
1.28998e-06
1.28813e-06
1.28503e-06
1.28503e-06
1.28503e-06
1.28503e-06
1.28503e-06
1.28503e-06
1.28818e-06
1.28856e-06
1.28822e-06
1.28503e-06
1.28503e-06
1.28503e-06
1.28503e-06
1.28503e-06
1.28503e-06
1.28825e-06
1.28992e-06
1.28977e-06
1.28779e-06
1.28503e-06
1.28503e-06
1.28503e-06
1.28503e-06
1.28778e-06
1.2884e-06
1.29006e-06
1.29001e-06
1.2884e-06
1.28828e-06
1.28821e-06
1.28818e-06
1.28825e-06
1.28839e-06
1.29008e-06
1.29002e-06
1.28976e-06
1.28856e-06
1.28992e-06
1.29006e-06
1.27385e-06
1.27371e-06
1.27363e-06
1.27199e-06
1.2719e-06
1.27186e-06
1.27195e-06
1.2735e-06
1.27374e-06
1.27363e-06
1.27151e-06
1.26876e-06
1.26876e-06
1.26876e-06
1.26876e-06
1.27152e-06
1.27213e-06
1.27199e-06
1.26876e-06
1.26876e-06
1.26876e-06
1.26876e-06
1.26876e-06
1.26876e-06
1.27201e-06
1.27375e-06
1.27385e-06
1.2719e-06
1.26876e-06
1.26876e-06
1.26876e-06
1.26876e-06
1.26876e-06
1.26876e-06
1.27194e-06
1.27349e-06
1.27371e-06
1.27186e-06
1.26876e-06
1.26876e-06
1.26876e-06
1.26876e-06
1.26876e-06
1.26876e-06
1.27191e-06
1.27229e-06
1.27195e-06
1.26876e-06
1.26876e-06
1.26876e-06
1.26876e-06
1.26876e-06
1.26876e-06
1.27198e-06
1.27365e-06
1.2735e-06
1.27152e-06
1.26876e-06
1.26876e-06
1.26876e-06
1.26876e-06
1.27151e-06
1.27212e-06
1.27379e-06
1.27374e-06
1.27213e-06
1.27201e-06
1.27194e-06
1.27191e-06
1.27198e-06
1.27212e-06
1.27381e-06
1.27375e-06
1.27349e-06
1.27228e-06
1.27365e-06
1.27379e-06
1.25758e-06
1.25744e-06
1.25736e-06
1.25572e-06
1.25562e-06
1.25558e-06
1.25568e-06
1.25723e-06
1.25747e-06
1.25736e-06
1.25524e-06
1.25248e-06
1.25248e-06
1.25248e-06
1.25248e-06
1.25525e-06
1.25586e-06
1.25572e-06
1.25248e-06
1.25248e-06
1.25248e-06
1.25248e-06
1.25248e-06
1.25248e-06
1.25574e-06
1.25748e-06
1.25758e-06
1.25562e-06
1.25248e-06
1.25248e-06
1.25248e-06
1.25248e-06
1.25248e-06
1.25248e-06
1.25567e-06
1.25722e-06
1.25744e-06
1.25558e-06
1.25248e-06
1.25248e-06
1.25248e-06
1.25248e-06
1.25248e-06
1.25248e-06
1.25564e-06
1.25601e-06
1.25568e-06
1.25248e-06
1.25248e-06
1.25248e-06
1.25248e-06
1.25248e-06
1.25248e-06
1.25571e-06
1.25738e-06
1.25723e-06
1.25525e-06
1.25248e-06
1.25248e-06
1.25248e-06
1.25248e-06
1.25524e-06
1.25585e-06
1.25752e-06
1.25747e-06
1.25586e-06
1.25574e-06
1.25567e-06
1.25564e-06
1.2557e-06
1.25585e-06
1.25754e-06
1.25748e-06
1.25722e-06
1.25601e-06
1.25738e-06
1.25752e-06
1.24131e-06
1.24117e-06
1.24109e-06
1.23945e-06
1.23935e-06
1.23931e-06
1.23941e-06
1.24096e-06
1.2412e-06
1.24109e-06
1.23897e-06
1.23621e-06
1.23621e-06
1.23621e-06
1.23621e-06
1.23898e-06
1.23959e-06
1.23945e-06
1.23621e-06
1.23621e-06
1.23621e-06
1.23621e-06
1.23621e-06
1.23621e-06
1.23947e-06
1.24121e-06
1.24131e-06
1.23935e-06
1.23621e-06
1.23621e-06
1.23621e-06
1.23621e-06
1.23621e-06
1.23621e-06
1.2394e-06
1.24095e-06
1.24117e-06
1.23931e-06
1.23621e-06
1.23621e-06
1.23621e-06
1.23621e-06
1.23621e-06
1.23621e-06
1.23936e-06
1.23974e-06
1.23941e-06
1.23621e-06
1.23621e-06
1.23621e-06
1.23621e-06
1.23621e-06
1.23621e-06
1.23944e-06
1.24111e-06
1.24096e-06
1.23898e-06
1.23621e-06
1.23621e-06
1.23621e-06
1.23621e-06
1.23897e-06
1.23958e-06
1.24125e-06
1.2412e-06
1.23959e-06
1.23947e-06
1.2394e-06
1.23937e-06
1.23943e-06
1.23958e-06
1.24127e-06
1.24121e-06
1.24095e-06
1.23974e-06
1.24111e-06
1.24125e-06
1.22504e-06
1.2249e-06
1.22482e-06
1.22318e-06
1.22308e-06
1.22304e-06
1.22314e-06
1.22468e-06
1.22492e-06
1.22481e-06
1.2227e-06
1.21994e-06
1.21994e-06
1.21994e-06
1.21994e-06
1.22271e-06
1.22332e-06
1.22317e-06
1.21994e-06
1.21994e-06
1.21994e-06
1.21994e-06
1.21994e-06
1.21994e-06
1.2232e-06
1.22494e-06
1.22504e-06
1.22308e-06
1.21994e-06
1.21994e-06
1.21994e-06
1.21994e-06
1.21994e-06
1.21994e-06
1.22313e-06
1.22468e-06
1.2249e-06
1.22304e-06
1.21994e-06
1.21994e-06
1.21994e-06
1.21994e-06
1.21994e-06
1.21994e-06
1.22309e-06
1.22347e-06
1.22314e-06
1.21994e-06
1.21994e-06
1.21994e-06
1.21994e-06
1.21994e-06
1.21994e-06
1.22316e-06
1.22483e-06
1.22468e-06
1.22271e-06
1.21994e-06
1.21994e-06
1.21994e-06
1.21994e-06
1.2227e-06
1.22331e-06
1.22498e-06
1.22492e-06
1.22332e-06
1.2232e-06
1.22313e-06
1.22309e-06
1.22316e-06
1.2233e-06
1.225e-06
1.22494e-06
1.22467e-06
1.22347e-06
1.22483e-06
1.22498e-06
1.20877e-06
1.20863e-06
1.20855e-06
1.2069e-06
1.20681e-06
1.20677e-06
1.20686e-06
1.20841e-06
1.20865e-06
1.20854e-06
1.20643e-06
1.20367e-06
1.20367e-06
1.20367e-06
1.20367e-06
1.20643e-06
1.20705e-06
1.2069e-06
1.20367e-06
1.20367e-06
1.20367e-06
1.20367e-06
1.20367e-06
1.20367e-06
1.20693e-06
1.20867e-06
1.20877e-06
1.20681e-06
1.20367e-06
1.20367e-06
1.20367e-06
1.20367e-06
1.20367e-06
1.20367e-06
1.20686e-06
1.2084e-06
1.20863e-06
1.20677e-06
1.20367e-06
1.20367e-06
1.20367e-06
1.20367e-06
1.20367e-06
1.20367e-06
1.20682e-06
1.2072e-06
1.20686e-06
1.20367e-06
1.20367e-06
1.20367e-06
1.20367e-06
1.20367e-06
1.20367e-06
1.20689e-06
1.20856e-06
1.20841e-06
1.20643e-06
1.20367e-06
1.20367e-06
1.20367e-06
1.20367e-06
1.20642e-06
1.20704e-06
1.20871e-06
1.20865e-06
1.20705e-06
1.20693e-06
1.20686e-06
1.20682e-06
1.20689e-06
1.20703e-06
1.20873e-06
1.20867e-06
1.20841e-06
1.2072e-06
1.20856e-06
1.2087e-06
1.1925e-06
1.19236e-06
1.19227e-06
1.19063e-06
1.19054e-06
1.1905e-06
1.19059e-06
1.19214e-06
1.19238e-06
1.19227e-06
1.19016e-06
1.1874e-06
1.1874e-06
1.1874e-06
1.1874e-06
1.19016e-06
1.19078e-06
1.19063e-06
1.1874e-06
1.1874e-06
1.1874e-06
1.1874e-06
1.1874e-06
1.1874e-06
1.19066e-06
1.1924e-06
1.19249e-06
1.19054e-06
1.1874e-06
1.1874e-06
1.1874e-06
1.1874e-06
1.1874e-06
1.1874e-06
1.19058e-06
1.19213e-06
1.19236e-06
1.1905e-06
1.1874e-06
1.1874e-06
1.1874e-06
1.1874e-06
1.1874e-06
1.1874e-06
1.19055e-06
1.19093e-06
1.19059e-06
1.1874e-06
1.1874e-06
1.1874e-06
1.1874e-06
1.1874e-06
1.1874e-06
1.19062e-06
1.19229e-06
1.19214e-06
1.19016e-06
1.1874e-06
1.1874e-06
1.1874e-06
1.1874e-06
1.19015e-06
1.19077e-06
1.19243e-06
1.19238e-06
1.19078e-06
1.19066e-06
1.19059e-06
1.19055e-06
1.19062e-06
1.19076e-06
1.19246e-06
1.1924e-06
1.19213e-06
1.19093e-06
1.19229e-06
1.19243e-06
1.17622e-06
1.17608e-06
1.176e-06
1.17436e-06
1.17427e-06
1.17423e-06
1.17432e-06
1.17587e-06
1.17611e-06
1.176e-06
1.17389e-06
1.17113e-06
1.17113e-06
1.17113e-06
1.17113e-06
1.17389e-06
1.1745e-06
1.17436e-06
1.17113e-06
1.17113e-06
1.17113e-06
1.17113e-06
1.17113e-06
1.17113e-06
1.17438e-06
1.17612e-06
1.17622e-06
1.17427e-06
1.17113e-06
1.17113e-06
1.17113e-06
1.17113e-06
1.17113e-06
1.17113e-06
1.17431e-06
1.17586e-06
1.17608e-06
1.17423e-06
1.17113e-06
1.17113e-06
1.17113e-06
1.17113e-06
1.17113e-06
1.17113e-06
1.17428e-06
1.17466e-06
1.17432e-06
1.17113e-06
1.17113e-06
1.17113e-06
1.17113e-06
1.17113e-06
1.17113e-06
1.17435e-06
1.17602e-06
1.17587e-06
1.17389e-06
1.17113e-06
1.17113e-06
1.17113e-06
1.17113e-06
1.17388e-06
1.1745e-06
1.17616e-06
1.17611e-06
1.1745e-06
1.17438e-06
1.17431e-06
1.17428e-06
1.17435e-06
1.17449e-06
1.17618e-06
1.17612e-06
1.17586e-06
1.17466e-06
1.17602e-06
1.17616e-06
1.15995e-06
1.15981e-06
1.15973e-06
1.15809e-06
1.158e-06
1.15796e-06
1.15805e-06
1.1596e-06
1.15984e-06
1.15973e-06
1.15761e-06
1.15486e-06
1.15486e-06
1.15486e-06
1.15486e-06
1.15762e-06
1.15823e-06
1.15809e-06
1.15486e-06
1.15486e-06
1.15486e-06
1.15486e-06
1.15486e-06
1.15486e-06
1.15811e-06
1.15985e-06
1.15995e-06
1.158e-06
1.15486e-06
1.15486e-06
1.15486e-06
1.15486e-06
1.15486e-06
1.15486e-06
1.15804e-06
1.15959e-06
1.15981e-06
1.15796e-06
1.15486e-06
1.15486e-06
1.15486e-06
1.15486e-06
1.15486e-06
1.15486e-06
1.15801e-06
1.15839e-06
1.15805e-06
1.15486e-06
1.15486e-06
1.15486e-06
1.15486e-06
1.15486e-06
1.15486e-06
1.15808e-06
1.15975e-06
1.1596e-06
1.15762e-06
1.15486e-06
1.15486e-06
1.15486e-06
1.15486e-06
1.15761e-06
1.15822e-06
1.15989e-06
1.15984e-06
1.15823e-06
1.15811e-06
1.15804e-06
1.15801e-06
1.15808e-06
1.15822e-06
1.15991e-06
1.15985e-06
1.15959e-06
1.15839e-06
1.15975e-06
1.15989e-06
1.14368e-06
1.14354e-06
1.14346e-06
1.14182e-06
1.14172e-06
1.14168e-06
1.14178e-06
1.14333e-06
1.14357e-06
1.14346e-06
1.14134e-06
1.13858e-06
1.13858e-06
1.13858e-06
1.13858e-06
1.14135e-06
1.14196e-06
1.14182e-06
1.13858e-06
1.13858e-06
1.13858e-06
1.13858e-06
1.13858e-06
1.13858e-06
1.14184e-06
1.14358e-06
1.14368e-06
1.14172e-06
1.13858e-06
1.13858e-06
1.13858e-06
1.13858e-06
1.13858e-06
1.13858e-06
1.14177e-06
1.14332e-06
1.14354e-06
1.14168e-06
1.13858e-06
1.13858e-06
1.13858e-06
1.13858e-06
1.13858e-06
1.13858e-06
1.14174e-06
1.14211e-06
1.14178e-06
1.13858e-06
1.13858e-06
1.13858e-06
1.13858e-06
1.13858e-06
1.13858e-06
1.14181e-06
1.14348e-06
1.14333e-06
1.14135e-06
1.13858e-06
1.13858e-06
1.13858e-06
1.13858e-06
1.14134e-06
1.14195e-06
1.14362e-06
1.14357e-06
1.14196e-06
1.14184e-06
1.14177e-06
1.14174e-06
1.14181e-06
1.14195e-06
1.14364e-06
1.14358e-06
1.14332e-06
1.14212e-06
1.14348e-06
1.14362e-06
1.12741e-06
1.12727e-06
1.12719e-06
1.12555e-06
1.12545e-06
1.12541e-06
1.12551e-06
1.12706e-06
1.1273e-06
1.12719e-06
1.12507e-06
1.12231e-06
1.12231e-06
1.12231e-06
1.12231e-06
1.12508e-06
1.12569e-06
1.12555e-06
1.12231e-06
1.12231e-06
1.12231e-06
1.12231e-06
1.12231e-06
1.12231e-06
1.12557e-06
1.12731e-06
1.12741e-06
1.12545e-06
1.12231e-06
1.12231e-06
1.12231e-06
1.12231e-06
1.12231e-06
1.12231e-06
1.1255e-06
1.12705e-06
1.12727e-06
1.12541e-06
1.12231e-06
1.12231e-06
1.12231e-06
1.12231e-06
1.12231e-06
1.12231e-06
1.12546e-06
1.12584e-06
1.12551e-06
1.12231e-06
1.12231e-06
1.12231e-06
1.12231e-06
1.12231e-06
1.12231e-06
1.12554e-06
1.12721e-06
1.12706e-06
1.12508e-06
1.12231e-06
1.12231e-06
1.12231e-06
1.12231e-06
1.12507e-06
1.12568e-06
1.12735e-06
1.1273e-06
1.12569e-06
1.12557e-06
1.1255e-06
1.12546e-06
1.12554e-06
1.12568e-06
1.12736e-06
1.12731e-06
1.12705e-06
1.12584e-06
1.12721e-06
1.12735e-06
1.11114e-06
1.111e-06
1.11092e-06
1.10928e-06
1.10918e-06
1.10914e-06
1.10924e-06
1.11078e-06
1.11103e-06
1.11092e-06
1.1088e-06
1.10604e-06
1.10604e-06
1.10604e-06
1.10604e-06
1.10881e-06
1.10942e-06
1.10928e-06
1.10604e-06
1.10604e-06
1.10604e-06
1.10604e-06
1.10604e-06
1.10604e-06
1.1093e-06
1.11104e-06
1.11114e-06
1.10918e-06
1.10604e-06
1.10604e-06
1.10604e-06
1.10604e-06
1.10604e-06
1.10604e-06
1.10923e-06
1.11078e-06
1.111e-06
1.10914e-06
1.10604e-06
1.10604e-06
1.10604e-06
1.10604e-06
1.10604e-06
1.10604e-06
1.10919e-06
1.10957e-06
1.10924e-06
1.10604e-06
1.10604e-06
1.10604e-06
1.10604e-06
1.10604e-06
1.10604e-06
1.10926e-06
1.11094e-06
1.11078e-06
1.10881e-06
1.10604e-06
1.10604e-06
1.10604e-06
1.10604e-06
1.1088e-06
1.10941e-06
1.11108e-06
1.11103e-06
1.10942e-06
1.1093e-06
1.10923e-06
1.10919e-06
1.10926e-06
1.10941e-06
1.11109e-06
1.11104e-06
1.11078e-06
1.10957e-06
1.11093e-06
1.11108e-06
1.09487e-06
1.09473e-06
1.09465e-06
1.09301e-06
1.09291e-06
1.09287e-06
1.09297e-06
1.09451e-06
1.09475e-06
1.09465e-06
1.09253e-06
1.08977e-06
1.08977e-06
1.08977e-06
1.08977e-06
1.09254e-06
1.09315e-06
1.09301e-06
1.08977e-06
1.08977e-06
1.08977e-06
1.08977e-06
1.08977e-06
1.08977e-06
1.09303e-06
1.09477e-06
1.09487e-06
1.09291e-06
1.08977e-06
1.08977e-06
1.08977e-06
1.08977e-06
1.08977e-06
1.08977e-06
1.09296e-06
1.09451e-06
1.09473e-06
1.09287e-06
1.08977e-06
1.08977e-06
1.08977e-06
1.08977e-06
1.08977e-06
1.08977e-06
1.09292e-06
1.0933e-06
1.09296e-06
1.08977e-06
1.08977e-06
1.08977e-06
1.08977e-06
1.08977e-06
1.08977e-06
1.09299e-06
1.09466e-06
1.09451e-06
1.09254e-06
1.08977e-06
1.08977e-06
1.08977e-06
1.08977e-06
1.09253e-06
1.09314e-06
1.09481e-06
1.09475e-06
1.09315e-06
1.09303e-06
1.09296e-06
1.09292e-06
1.09299e-06
1.09314e-06
1.09482e-06
1.09477e-06
1.09451e-06
1.0933e-06
1.09466e-06
1.09481e-06
1.0786e-06
1.07846e-06
1.07838e-06
1.07673e-06
1.07664e-06
1.0766e-06
1.07669e-06
1.07824e-06
1.07848e-06
1.07837e-06
1.07626e-06
1.0735e-06
1.0735e-06
1.0735e-06
1.0735e-06
1.07627e-06
1.07688e-06
1.07673e-06
1.0735e-06
1.0735e-06
1.0735e-06
1.0735e-06
1.0735e-06
1.0735e-06
1.07676e-06
1.0785e-06
1.0786e-06
1.07664e-06
1.0735e-06
1.0735e-06
1.0735e-06
1.0735e-06
1.0735e-06
1.0735e-06
1.07669e-06
1.07823e-06
1.07845e-06
1.0766e-06
1.0735e-06
1.0735e-06
1.0735e-06
1.0735e-06
1.0735e-06
1.0735e-06
1.07665e-06
1.07703e-06
1.07669e-06
1.0735e-06
1.0735e-06
1.0735e-06
1.0735e-06
1.0735e-06
1.0735e-06
1.07672e-06
1.07839e-06
1.07824e-06
1.07627e-06
1.0735e-06
1.0735e-06
1.0735e-06
1.0735e-06
1.07625e-06
1.07687e-06
1.07854e-06
1.07848e-06
1.07688e-06
1.07676e-06
1.07669e-06
1.07665e-06
1.07672e-06
1.07686e-06
1.07855e-06
1.0785e-06
1.07824e-06
1.07703e-06
1.07839e-06
1.07854e-06
1.06233e-06
1.06219e-06
1.06211e-06
1.06046e-06
1.06037e-06
1.06033e-06
1.06042e-06
1.06197e-06
1.06221e-06
1.0621e-06
1.05999e-06
1.05723e-06
1.05723e-06
1.05723e-06
1.05723e-06
1.06e-06
1.06061e-06
1.06046e-06
1.05723e-06
1.05723e-06
1.05723e-06
1.05723e-06
1.05723e-06
1.05723e-06
1.06049e-06
1.06223e-06
1.06233e-06
1.06037e-06
1.05723e-06
1.05723e-06
1.05723e-06
1.05723e-06
1.05723e-06
1.05723e-06
1.06042e-06
1.06196e-06
1.06219e-06
1.06033e-06
1.05723e-06
1.05723e-06
1.05723e-06
1.05723e-06
1.05723e-06
1.05723e-06
1.06038e-06
1.06076e-06
1.06042e-06
1.05723e-06
1.05723e-06
1.05723e-06
1.05723e-06
1.05723e-06
1.05723e-06
1.06045e-06
1.06212e-06
1.06197e-06
1.06e-06
1.05723e-06
1.05723e-06
1.05723e-06
1.05723e-06
1.05998e-06
1.0606e-06
1.06227e-06
1.06221e-06
1.06061e-06
1.06049e-06
1.06042e-06
1.06038e-06
1.06045e-06
1.06059e-06
1.06228e-06
1.06223e-06
1.06196e-06
1.06076e-06
1.06212e-06
1.06226e-06
1.04606e-06
1.04592e-06
1.04584e-06
1.04419e-06
1.0441e-06
1.04406e-06
1.04415e-06
1.0457e-06
1.04594e-06
1.04583e-06
1.04372e-06
1.04096e-06
1.04096e-06
1.04096e-06
1.04096e-06
1.04373e-06
1.04434e-06
1.04419e-06
1.04096e-06
1.04096e-06
1.04096e-06
1.04096e-06
1.04096e-06
1.04096e-06
1.04422e-06
1.04596e-06
1.04606e-06
1.0441e-06
1.04096e-06
1.04096e-06
1.04096e-06
1.04096e-06
1.04096e-06
1.04096e-06
1.04415e-06
1.04569e-06
1.04592e-06
1.04406e-06
1.04096e-06
1.04096e-06
1.04096e-06
1.04096e-06
1.04096e-06
1.04096e-06
1.04411e-06
1.04449e-06
1.04415e-06
1.04096e-06
1.04096e-06
1.04096e-06
1.04096e-06
1.04096e-06
1.04096e-06
1.04418e-06
1.04585e-06
1.0457e-06
1.04373e-06
1.04096e-06
1.04096e-06
1.04096e-06
1.04096e-06
1.04371e-06
1.04433e-06
1.046e-06
1.04594e-06
1.04434e-06
1.04422e-06
1.04415e-06
1.04411e-06
1.04418e-06
1.04432e-06
1.04601e-06