/*--------------------------------*- C++ -*----------------------------------*\
| =========                 |                                                 |
| \\      /  F ield         | OpenFOAM: The Open Source CFD Toolbox           |
|  \\    /   O peration     | Version:  v2012                                 |
|   \\  /    A nd           | Website:  www.openfoam.com                      |
|    \\/     M anipulation  |                                                 |
\*---------------------------------------------------------------------------*/
FoamFile
{
    version     2.0;
    format      ascii;
    class       volScalarField;
    location    "0.03";
    object      p;
}
// * * * * * * * * * * * * * * * * * * * * * * * * * * * * * * * * * * * * * //

dimensions      [0 2 -2 0 0 0 0];


internalField   nonuniform List<scalar> 
244288
(
2.8389e-06
2.84262e-06
2.84219e-06
2.84122e-06
2.8405e-06
2.84141e-06
2.84237e-06
2.84262e-06
2.84304e-06
2.843e-06
2.84247e-06
2.84212e-06
2.84258e-06
2.84309e-06
2.84303e-06
2.84221e-06
2.84301e-06
2.84289e-06
2.84245e-06
2.84225e-06
2.84253e-06
2.84297e-06
2.843e-06
2.84207e-06
2.84124e-06
2.84248e-06
2.84245e-06
2.84209e-06
2.84193e-06
2.84215e-06
2.84252e-06
2.84244e-06
2.84097e-06
2.83888e-06
2.84049e-06
2.84211e-06
2.84224e-06
2.84193e-06
2.84179e-06
2.84199e-06
2.8423e-06
2.84206e-06
2.84023e-06
2.84138e-06
2.84257e-06
2.84252e-06
2.84215e-06
2.84199e-06
2.84221e-06
2.8426e-06
2.84257e-06
2.84117e-06
2.84234e-06
2.84307e-06
2.84297e-06
2.84252e-06
2.8423e-06
2.84259e-06
2.84305e-06
2.84309e-06
2.84228e-06
2.84303e-06
2.843e-06
2.84245e-06
2.84205e-06
2.84255e-06
2.84308e-06
2.84304e-06
2.84209e-06
2.84099e-06
2.84022e-06
2.84114e-06
2.84225e-06
2.80269e-06
2.80147e-06
2.80686e-06
2.80488e-06
2.80349e-06
2.80364e-06
2.80365e-06
2.80887e-06
2.80821e-06
2.80687e-06
2.80442e-06
2.80096e-06
2.8005e-06
2.80051e-06
2.80099e-06
2.80662e-06
2.80581e-06
2.80489e-06
2.80094e-06
2.80085e-06
2.80074e-06
2.80075e-06
2.80087e-06
2.80099e-06
2.80624e-06
2.80957e-06
2.8028e-06
2.80347e-06
2.80048e-06
2.80074e-06
2.80081e-06
2.80082e-06
2.80077e-06
2.80054e-06
2.80481e-06
2.8065e-06
2.80148e-06
2.8036e-06
2.80049e-06
2.80074e-06
2.80082e-06
2.80083e-06
2.80078e-06
2.80055e-06
2.80485e-06
2.80224e-06
2.80363e-06
2.80098e-06
2.80087e-06
2.80077e-06
2.80077e-06
2.8009e-06
2.80104e-06
2.8053e-06
2.80508e-06
2.80884e-06
2.80661e-06
2.801e-06
2.80054e-06
2.80054e-06
2.80101e-06
2.80724e-06
2.80676e-06
2.81008e-06
2.8082e-06
2.80583e-06
2.80625e-06
2.80482e-06
2.80483e-06
2.80528e-06
2.80661e-06
2.81225e-06
2.80963e-06
2.8066e-06
2.80221e-06
2.80496e-06
2.81004e-06
2.78152e-06
2.78199e-06
2.78134e-06
2.77913e-06
2.77913e-06
2.7787e-06
2.77927e-06
2.78393e-06
2.78336e-06
2.78129e-06
2.77915e-06
2.77835e-06
2.7779e-06
2.77787e-06
2.77828e-06
2.78551e-06
2.78072e-06
2.77909e-06
2.77829e-06
2.77719e-06
2.777e-06
2.77699e-06
2.7772e-06
2.77842e-06
2.7859e-06
2.78438e-06
2.78165e-06
2.77915e-06
2.77785e-06
2.77699e-06
2.77676e-06
2.77677e-06
2.77701e-06
2.77792e-06
2.78435e-06
2.78259e-06
2.78168e-06
2.77867e-06
2.77784e-06
2.77699e-06
2.77678e-06
2.77679e-06
2.77703e-06
2.77792e-06
2.78346e-06
2.77794e-06
2.77922e-06
2.77828e-06
2.77723e-06
2.77704e-06
2.77704e-06
2.77725e-06
2.77838e-06
2.78529e-06
2.78338e-06
2.78391e-06
2.78552e-06
2.7785e-06
2.77798e-06
2.77795e-06
2.77847e-06
2.7885e-06
2.78375e-06
2.7834e-06
2.78335e-06
2.78075e-06
2.78597e-06
2.78443e-06
2.78352e-06
2.78538e-06
2.78392e-06
2.78635e-06
2.78441e-06
2.78256e-06
2.7781e-06
2.7834e-06
2.78349e-06
2.75038e-06
2.75068e-06
2.75054e-06
2.7481e-06
2.74799e-06
2.74752e-06
2.74834e-06
2.75381e-06
2.75273e-06
2.75049e-06
2.74769e-06
2.74451e-06
2.74433e-06
2.74435e-06
2.74463e-06
2.75542e-06
2.75046e-06
2.74808e-06
2.74453e-06
2.74446e-06
2.74445e-06
2.74447e-06
2.74454e-06
2.74469e-06
2.75701e-06
2.75403e-06
2.75029e-06
2.748e-06
2.74432e-06
2.74445e-06
2.7445e-06
2.74452e-06
2.74449e-06
2.74439e-06
2.75561e-06
2.75165e-06
2.75062e-06
2.74752e-06
2.74435e-06
2.74448e-06
2.74452e-06
2.74453e-06
2.7445e-06
2.74439e-06
2.75462e-06
2.74721e-06
2.74829e-06
2.74464e-06
2.74455e-06
2.74451e-06
2.74451e-06
2.74456e-06
2.74465e-06
2.75658e-06
2.75247e-06
2.75378e-06
2.7554e-06
2.74471e-06
2.74441e-06
2.74442e-06
2.74473e-06
2.76e-06
2.75395e-06
2.75321e-06
2.75271e-06
2.75048e-06
2.75704e-06
2.75566e-06
2.7547e-06
2.75671e-06
2.75422e-06
2.75591e-06
2.75407e-06
2.75165e-06
2.74731e-06
2.75258e-06
2.7534e-06
2.7223e-06
2.72265e-06
2.72197e-06
2.71933e-06
2.71914e-06
2.71864e-06
2.71959e-06
2.7255e-06
2.72419e-06
2.72201e-06
2.71775e-06
2.71334e-06
2.71333e-06
2.71334e-06
2.71339e-06
2.72604e-06
2.72203e-06
2.71932e-06
2.71334e-06
2.71337e-06
2.71339e-06
2.7134e-06
2.7134e-06
2.71341e-06
2.729e-06
2.72583e-06
2.72232e-06
2.71916e-06
2.71333e-06
2.71339e-06
2.71342e-06
2.71342e-06
2.7134e-06
2.71335e-06
2.7283e-06
2.72341e-06
2.72268e-06
2.71868e-06
2.71334e-06
2.7134e-06
2.71343e-06
2.71343e-06
2.71341e-06
2.71335e-06
2.72747e-06
2.71893e-06
2.71963e-06
2.71341e-06
2.71341e-06
2.71341e-06
2.71341e-06
2.71341e-06
2.7134e-06
2.72897e-06
2.72431e-06
2.72554e-06
2.72605e-06
2.71341e-06
2.71336e-06
2.71336e-06
2.71342e-06
2.73196e-06
2.72558e-06
2.72501e-06
2.72419e-06
2.722e-06
2.72902e-06
2.72833e-06
2.72753e-06
2.72908e-06
2.72594e-06
2.72748e-06
2.72576e-06
2.72341e-06
2.71896e-06
2.72435e-06
2.72509e-06
2.69314e-06
2.69352e-06
2.69274e-06
2.68994e-06
2.68967e-06
2.68916e-06
2.69021e-06
2.69634e-06
2.69501e-06
2.6928e-06
2.68798e-06
2.68309e-06
2.68311e-06
2.68311e-06
2.68312e-06
2.69639e-06
2.69276e-06
2.68992e-06
2.68308e-06
2.68311e-06
2.68312e-06
2.68313e-06
2.68313e-06
2.68312e-06
2.6998e-06
2.69666e-06
2.69319e-06
2.68969e-06
2.68309e-06
2.68312e-06
2.68314e-06
2.68314e-06
2.68314e-06
2.68312e-06
2.6993e-06
2.6942e-06
2.69351e-06
2.68913e-06
2.6831e-06
2.68314e-06
2.68315e-06
2.68315e-06
2.68314e-06
2.68313e-06
2.69854e-06
2.68968e-06
2.69023e-06
2.68319e-06
2.68317e-06
2.68316e-06
2.68315e-06
2.68314e-06
2.68313e-06
2.69989e-06
2.69513e-06
2.69641e-06
2.69646e-06
2.68317e-06
2.68315e-06
2.68314e-06
2.68315e-06
2.70278e-06
2.69637e-06
2.69591e-06
2.69509e-06
2.69288e-06
2.69984e-06
2.69936e-06
2.69858e-06
2.69996e-06
2.69674e-06
2.69826e-06
2.69663e-06
2.69424e-06
2.68977e-06
2.69514e-06
2.69597e-06
2.6634e-06
2.66381e-06
2.66302e-06
2.66019e-06
2.6599e-06
2.65939e-06
2.66048e-06
2.66666e-06
2.66533e-06
2.66306e-06
2.65817e-06
2.65312e-06
2.65311e-06
2.65312e-06
2.65313e-06
2.66657e-06
2.66311e-06
2.66018e-06
2.65312e-06
2.65313e-06
2.65313e-06
2.65313e-06
2.65313e-06
2.65312e-06
2.6701e-06
2.66697e-06
2.66351e-06
2.65995e-06
2.65314e-06
2.65314e-06
2.65314e-06
2.65314e-06
2.65314e-06
2.65313e-06
2.66966e-06
2.6645e-06
2.66375e-06
2.65939e-06
2.65317e-06
2.65316e-06
2.65315e-06
2.65314e-06
2.65314e-06
2.65313e-06
2.6689e-06
2.65998e-06
2.66051e-06
2.65317e-06
2.65316e-06
2.65315e-06
2.65314e-06
2.65314e-06
2.65313e-06
2.67021e-06
2.6654e-06
2.66678e-06
2.66663e-06
2.65316e-06
2.65315e-06
2.65314e-06
2.65313e-06
2.67311e-06
2.66669e-06
2.66619e-06
2.66541e-06
2.66323e-06
2.67018e-06
2.66974e-06
2.66898e-06
2.67032e-06
2.66707e-06
2.66856e-06
2.66703e-06
2.66456e-06
2.66009e-06
2.66545e-06
2.6663e-06
2.6336e-06
2.634e-06
2.6332e-06
2.63038e-06
2.63008e-06
2.62955e-06
2.63065e-06
2.63683e-06
2.6355e-06
2.6333e-06
2.62827e-06
2.62321e-06
2.62322e-06
2.62321e-06
2.62322e-06
2.6367e-06
2.63332e-06
2.63034e-06
2.62321e-06
2.62321e-06
2.62322e-06
2.62322e-06
2.62322e-06
2.62322e-06
2.64029e-06
2.63715e-06
2.63361e-06
2.63009e-06
2.62321e-06
2.62321e-06
2.62322e-06
2.62322e-06
2.62322e-06
2.62322e-06
2.63985e-06
2.63467e-06
2.63404e-06
2.62957e-06
2.62321e-06
2.62322e-06
2.62322e-06
2.62322e-06
2.62322e-06
2.62322e-06
2.63908e-06
2.63013e-06
2.63066e-06
2.62322e-06
2.62322e-06
2.62322e-06
2.62322e-06
2.62322e-06
2.62322e-06
2.64038e-06
2.63557e-06
2.63689e-06
2.63674e-06
2.62322e-06
2.62322e-06
2.62322e-06
2.62322e-06
2.64328e-06
2.63687e-06
2.63637e-06
2.63554e-06
2.63332e-06
2.64032e-06
2.63991e-06
2.63914e-06
2.64048e-06
2.63721e-06
2.63875e-06
2.63717e-06
2.63472e-06
2.63019e-06
2.63563e-06
2.63646e-06
2.60373e-06
2.60414e-06
2.60335e-06
2.60052e-06
2.60021e-06
2.59968e-06
2.60078e-06
2.60697e-06
2.60565e-06
2.60343e-06
2.5984e-06
2.59333e-06
2.59332e-06
2.59332e-06
2.59331e-06
2.60684e-06
2.60347e-06
2.60044e-06
2.59333e-06
2.59332e-06
2.59332e-06
2.59331e-06
2.59331e-06
2.59331e-06
2.61041e-06
2.6073e-06
2.60382e-06
2.6003e-06
2.59331e-06
2.59331e-06
2.59331e-06
2.59331e-06
2.59331e-06
2.59331e-06
2.60998e-06
2.60481e-06
2.60404e-06
2.59968e-06
2.59329e-06
2.5933e-06
2.5933e-06
2.59331e-06
2.5933e-06
2.5933e-06
2.60921e-06
2.60027e-06
2.6007e-06
2.59328e-06
2.5933e-06
2.5933e-06
2.5933e-06
2.5933e-06
2.59331e-06
2.61052e-06
2.6057e-06
2.60695e-06
2.6068e-06
2.5933e-06
2.5933e-06
2.5933e-06
2.5933e-06
2.61341e-06
2.60701e-06
2.60649e-06
2.60564e-06
2.6034e-06
2.61041e-06
2.61e-06
2.60924e-06
2.61057e-06
2.60734e-06
2.60889e-06
2.60726e-06
2.60481e-06
2.6003e-06
2.60572e-06
2.60657e-06
2.57385e-06
2.57425e-06
2.57348e-06
2.57064e-06
2.57033e-06
2.56979e-06
2.5709e-06
2.57709e-06
2.57576e-06
2.57357e-06
2.56853e-06
2.56343e-06
2.56343e-06
2.56342e-06
2.56342e-06
2.57695e-06
2.57358e-06
2.57066e-06
2.56343e-06
2.56343e-06
2.56342e-06
2.56342e-06
2.56342e-06
2.56341e-06
2.58052e-06
2.57741e-06
2.57405e-06
2.57038e-06
2.56343e-06
2.56342e-06
2.56342e-06
2.56342e-06
2.56341e-06
2.56341e-06
2.58009e-06
2.57492e-06
2.57408e-06
2.5698e-06
2.56341e-06
2.56341e-06
2.56341e-06
2.56341e-06
2.56341e-06
2.56341e-06
2.57933e-06
2.57038e-06
2.57077e-06
2.5634e-06
2.5634e-06
2.5634e-06
2.5634e-06
2.56341e-06
2.56341e-06
2.58062e-06
2.57581e-06
2.57703e-06
2.57689e-06
2.56339e-06
2.5634e-06
2.5634e-06
2.5634e-06
2.58353e-06
2.57712e-06
2.5766e-06
2.57571e-06
2.57349e-06
2.58052e-06
2.58012e-06
2.57935e-06
2.58069e-06
2.57746e-06
2.579e-06
2.57736e-06
2.57491e-06
2.57039e-06
2.57583e-06
2.57668e-06
2.54396e-06
2.54437e-06
2.54359e-06
2.54073e-06
2.54042e-06
2.53989e-06
2.541e-06
2.54719e-06
2.54587e-06
2.54365e-06
2.53865e-06
2.53353e-06
2.53353e-06
2.53352e-06
2.53352e-06
2.54706e-06
2.54369e-06
2.54068e-06
2.53354e-06
2.53353e-06
2.53352e-06
2.53352e-06
2.53352e-06
2.53352e-06
2.55063e-06
2.54751e-06
2.54387e-06
2.5405e-06
2.53353e-06
2.53352e-06
2.53352e-06
2.53352e-06
2.53352e-06
2.53352e-06
2.5502e-06
2.54502e-06
2.5443e-06
2.5399e-06
2.53351e-06
2.53351e-06
2.53351e-06
2.53352e-06
2.53352e-06
2.53352e-06
2.54944e-06
2.54049e-06
2.54091e-06
2.5335e-06
2.5335e-06
2.53351e-06
2.53351e-06
2.53352e-06
2.53352e-06
2.55073e-06
2.54592e-06
2.54718e-06
2.547e-06
2.5335e-06
2.5335e-06
2.53351e-06
2.53352e-06
2.55364e-06
2.54723e-06
2.54671e-06
2.54582e-06
2.54365e-06
2.55063e-06
2.55019e-06
2.54945e-06
2.55081e-06
2.54758e-06
2.54911e-06
2.54746e-06
2.54501e-06
2.54049e-06
2.54596e-06
2.5468e-06
2.51404e-06
2.51444e-06
2.51368e-06
2.51082e-06
2.51051e-06
2.50999e-06
2.51109e-06
2.51729e-06
2.51597e-06
2.51373e-06
2.50872e-06
2.50362e-06
2.50362e-06
2.50362e-06
2.50362e-06
2.51716e-06
2.51379e-06
2.51082e-06
2.50361e-06
2.50362e-06
2.50362e-06
2.50362e-06
2.50362e-06
2.50362e-06
2.52074e-06
2.51762e-06
2.51408e-06
2.51053e-06
2.50362e-06
2.50362e-06
2.50362e-06
2.50362e-06
2.50362e-06
2.50362e-06
2.52031e-06
2.51514e-06
2.51446e-06
2.50998e-06
2.50362e-06
2.50362e-06
2.50362e-06
2.50362e-06
2.50362e-06
2.50362e-06
2.51954e-06
2.51059e-06
2.51106e-06
2.50362e-06
2.50362e-06
2.50362e-06
2.50362e-06
2.50362e-06
2.50362e-06
2.52083e-06
2.51602e-06
2.51732e-06
2.51714e-06
2.50362e-06
2.50362e-06
2.50362e-06
2.50362e-06
2.52373e-06
2.51733e-06
2.51681e-06
2.51595e-06
2.51377e-06
2.52076e-06
2.52033e-06
2.51958e-06
2.52093e-06
2.51768e-06
2.51922e-06
2.51758e-06
2.51514e-06
2.51062e-06
2.51606e-06
2.51691e-06
2.48414e-06
2.48455e-06
2.48376e-06
2.48091e-06
2.4806e-06
2.48008e-06
2.48119e-06
2.48739e-06
2.48607e-06
2.48381e-06
2.47881e-06
2.47371e-06
2.47371e-06
2.47371e-06
2.47372e-06
2.48726e-06
2.48389e-06
2.48093e-06
2.47371e-06
2.47371e-06
2.47372e-06
2.47372e-06
2.47372e-06
2.47372e-06
2.49084e-06
2.48773e-06
2.48429e-06
2.48066e-06
2.47372e-06
2.47372e-06
2.47372e-06
2.47372e-06
2.47372e-06
2.47373e-06
2.49041e-06
2.48524e-06
2.48462e-06
2.48009e-06
2.47373e-06
2.47373e-06
2.47373e-06
2.47373e-06
2.47373e-06
2.47373e-06
2.48965e-06
2.4807e-06
2.4812e-06
2.47374e-06
2.47374e-06
2.47374e-06
2.47374e-06
2.47373e-06
2.47373e-06
2.49094e-06
2.48613e-06
2.48746e-06
2.48729e-06
2.47375e-06
2.47375e-06
2.47374e-06
2.47374e-06
2.49387e-06
2.48745e-06
2.48692e-06
2.48608e-06
2.48392e-06
2.49089e-06
2.49044e-06
2.4897e-06
2.49106e-06
2.48781e-06
2.48934e-06
2.4877e-06
2.48525e-06
2.48075e-06
2.48619e-06
2.48704e-06
2.45423e-06
2.45464e-06
2.45383e-06
2.45102e-06
2.45071e-06
2.45018e-06
2.45129e-06
2.45749e-06
2.45617e-06
2.45393e-06
2.4489e-06
2.4438e-06
2.44381e-06
2.44382e-06
2.44382e-06
2.45735e-06
2.45399e-06
2.45098e-06
2.4438e-06
2.44381e-06
2.44382e-06
2.44382e-06
2.44382e-06
2.44382e-06
2.46094e-06
2.45782e-06
2.45431e-06
2.45075e-06
2.44382e-06
2.44382e-06
2.44382e-06
2.44383e-06
2.44383e-06
2.44383e-06
2.46051e-06
2.45534e-06
2.45457e-06
2.45019e-06
2.44384e-06
2.44384e-06
2.44383e-06
2.44383e-06
2.44383e-06
2.44383e-06
2.45976e-06
2.45081e-06
2.4513e-06
2.44384e-06
2.44385e-06
2.44384e-06
2.44384e-06
2.44384e-06
2.44384e-06
2.46105e-06
2.45624e-06
2.4576e-06
2.45739e-06
2.44385e-06
2.44385e-06
2.44384e-06
2.44384e-06
2.46397e-06
2.45756e-06
2.45703e-06
2.45621e-06
2.45408e-06
2.46103e-06
2.4606e-06
2.45984e-06
2.46117e-06
2.45792e-06
2.45945e-06
2.45786e-06
2.45539e-06
2.45088e-06
2.45631e-06
2.45715e-06
2.42433e-06
2.42474e-06
2.42395e-06
2.42112e-06
2.42081e-06
2.42028e-06
2.42139e-06
2.42759e-06
2.42627e-06
2.42403e-06
2.419e-06
2.41391e-06
2.41392e-06
2.41392e-06
2.41392e-06
2.42746e-06
2.42409e-06
2.4211e-06
2.41392e-06
2.41392e-06
2.41392e-06
2.41392e-06
2.41393e-06
2.41393e-06
2.43104e-06
2.42792e-06
2.42445e-06
2.42086e-06
2.41393e-06
2.41393e-06
2.41393e-06
2.41393e-06
2.41393e-06
2.41393e-06
2.43061e-06
2.42545e-06
2.42483e-06
2.42031e-06
2.41393e-06
2.41394e-06
2.41393e-06
2.41393e-06
2.41393e-06
2.41393e-06
2.42986e-06
2.42091e-06
2.42135e-06
2.41394e-06
2.41394e-06
2.41394e-06
2.41393e-06
2.41393e-06
2.41394e-06
2.43115e-06
2.42634e-06
2.42767e-06
2.42752e-06
2.41395e-06
2.41394e-06
2.41393e-06
2.41393e-06
2.43406e-06
2.42766e-06
2.42714e-06
2.42631e-06
2.4241e-06
2.4311e-06
2.43069e-06
2.42993e-06
2.43125e-06
2.428e-06
2.42954e-06
2.42794e-06
2.42549e-06
2.42098e-06
2.42639e-06
2.42724e-06
2.39445e-06
2.39487e-06
2.39406e-06
2.39123e-06
2.39091e-06
2.39039e-06
2.39151e-06
2.3977e-06
2.39638e-06
2.39415e-06
2.38911e-06
2.38403e-06
2.38402e-06
2.38403e-06
2.38403e-06
2.39757e-06
2.3942e-06
2.3912e-06
2.38403e-06
2.38403e-06
2.38402e-06
2.38403e-06
2.38403e-06
2.38403e-06
2.40114e-06
2.39803e-06
2.39448e-06
2.39096e-06
2.38402e-06
2.38402e-06
2.38403e-06
2.38403e-06
2.38403e-06
2.38404e-06
2.40072e-06
2.39555e-06
2.39478e-06
2.39044e-06
2.38402e-06
2.38402e-06
2.38403e-06
2.38403e-06
2.38403e-06
2.38404e-06
2.39996e-06
2.39101e-06
2.39148e-06
2.38402e-06
2.38402e-06
2.38403e-06
2.38403e-06
2.38404e-06
2.38404e-06
2.40127e-06
2.39645e-06
2.39772e-06
2.39753e-06
2.38404e-06
2.38403e-06
2.38403e-06
2.38402e-06
2.40418e-06
2.39776e-06
2.39724e-06
2.3964e-06
2.39419e-06
2.40117e-06
2.40074e-06
2.39999e-06
2.40134e-06
2.39812e-06
2.39965e-06
2.39802e-06
2.39556e-06
2.39104e-06
2.39648e-06
2.39734e-06
2.36455e-06
2.36496e-06
2.36417e-06
2.36133e-06
2.36102e-06
2.36049e-06
2.3616e-06
2.3678e-06
2.36648e-06
2.36425e-06
2.35921e-06
2.35412e-06
2.35412e-06
2.35413e-06
2.35413e-06
2.36766e-06
2.3643e-06
2.36129e-06
2.35412e-06
2.35412e-06
2.35412e-06
2.35413e-06
2.35413e-06
2.35413e-06
2.37125e-06
2.36813e-06
2.36458e-06
2.36103e-06
2.35412e-06
2.35412e-06
2.35412e-06
2.35413e-06
2.35413e-06
2.35414e-06
2.37083e-06
2.36565e-06
2.36497e-06
2.36052e-06
2.35411e-06
2.35412e-06
2.35412e-06
2.35413e-06
2.35414e-06
2.35414e-06
2.37007e-06
2.36111e-06
2.36156e-06
2.35411e-06
2.35411e-06
2.35412e-06
2.35413e-06
2.35414e-06
2.35415e-06
2.37138e-06
2.36655e-06
2.36781e-06
2.36764e-06
2.3541e-06
2.35412e-06
2.35414e-06
2.35415e-06
2.37427e-06
2.36786e-06
2.36735e-06
2.36647e-06
2.36425e-06
2.37123e-06
2.3708e-06
2.3701e-06
2.37144e-06
2.36824e-06
2.36973e-06
2.36807e-06
2.36564e-06
2.36117e-06
2.3666e-06
2.36746e-06
2.33465e-06
2.33505e-06
2.33428e-06
2.33144e-06
2.33113e-06
2.33059e-06
2.33169e-06
2.33789e-06
2.33657e-06
2.33436e-06
2.32932e-06
2.32422e-06
2.32423e-06
2.32423e-06
2.32423e-06
2.33776e-06
2.3344e-06
2.3314e-06
2.32422e-06
2.32422e-06
2.32423e-06
2.32423e-06
2.32423e-06
2.32422e-06
2.34135e-06
2.33824e-06
2.33468e-06
2.33112e-06
2.32422e-06
2.32422e-06
2.32422e-06
2.32423e-06
2.32423e-06
2.32423e-06
2.34093e-06
2.33575e-06
2.33506e-06
2.33057e-06
2.32421e-06
2.32422e-06
2.32422e-06
2.32423e-06
2.32424e-06
2.32424e-06
2.34018e-06
2.33122e-06
2.33167e-06
2.3242e-06
2.32421e-06
2.32422e-06
2.32424e-06
2.32425e-06
2.32425e-06
2.34149e-06
2.33666e-06
2.33789e-06
2.33773e-06
2.32421e-06
2.32422e-06
2.32424e-06
2.32425e-06
2.3444e-06
2.33799e-06
2.33746e-06
2.33654e-06
2.33433e-06
2.34133e-06
2.34086e-06
2.34021e-06
2.34154e-06
2.33836e-06
2.33985e-06
2.3382e-06
2.33578e-06
2.33116e-06
2.33669e-06
2.33757e-06
2.30476e-06
2.30517e-06
2.30438e-06
2.30153e-06
2.30122e-06
2.3007e-06
2.30181e-06
2.308e-06
2.30668e-06
2.30446e-06
2.29942e-06
2.29432e-06
2.29433e-06
2.29433e-06
2.29433e-06
2.30787e-06
2.3045e-06
2.30151e-06
2.29432e-06
2.29433e-06
2.29433e-06
2.29433e-06
2.29433e-06
2.29433e-06
2.31144e-06
2.30833e-06
2.30471e-06
2.3012e-06
2.29432e-06
2.29432e-06
2.29433e-06
2.29433e-06
2.29433e-06
2.29433e-06
2.31101e-06
2.30584e-06
2.30509e-06
2.30071e-06
2.29432e-06
2.29432e-06
2.29433e-06
2.29433e-06
2.29434e-06
2.29434e-06
2.31026e-06
2.30131e-06
2.30175e-06
2.29431e-06
2.29432e-06
2.29433e-06
2.29434e-06
2.29434e-06
2.29435e-06
2.31157e-06
2.30675e-06
2.30798e-06
2.30784e-06
2.29432e-06
2.29432e-06
2.29434e-06
2.29435e-06
2.31449e-06
2.30805e-06
2.30755e-06
2.30665e-06
2.30445e-06
2.31144e-06
2.31099e-06
2.31026e-06
2.31166e-06
2.30845e-06
2.30993e-06
2.30824e-06
2.3059e-06
2.30136e-06
2.30679e-06
2.30763e-06
2.27485e-06
2.27526e-06
2.27448e-06
2.27164e-06
2.27133e-06
2.27079e-06
2.27189e-06
2.27809e-06
2.27677e-06
2.27457e-06
2.26953e-06
2.26443e-06
2.26443e-06
2.26442e-06
2.26442e-06
2.27796e-06
2.27459e-06
2.27161e-06
2.26443e-06
2.26443e-06
2.26443e-06
2.26442e-06
2.26442e-06
2.26442e-06
2.28153e-06
2.27842e-06
2.2749e-06
2.27136e-06
2.26443e-06
2.26443e-06
2.26442e-06
2.26442e-06
2.26442e-06
2.26442e-06
2.2811e-06
2.27593e-06
2.27521e-06
2.27081e-06
2.26443e-06
2.26443e-06
2.26442e-06
2.26442e-06
2.26442e-06
2.26441e-06
2.28034e-06
2.27139e-06
2.27189e-06
2.26444e-06
2.26444e-06
2.26442e-06
2.26441e-06
2.26441e-06
2.26441e-06
2.28165e-06
2.27683e-06
2.27811e-06
2.27796e-06
2.26445e-06
2.26443e-06
2.26441e-06
2.2644e-06
2.28453e-06
2.27814e-06
2.27762e-06
2.27678e-06
2.27458e-06
2.28157e-06
2.2813e-06
2.2804e-06
2.28173e-06
2.27845e-06
2.27998e-06
2.27842e-06
2.27595e-06
2.27147e-06
2.27687e-06
2.27772e-06
2.24495e-06
2.24536e-06
2.24457e-06
2.24173e-06
2.24137e-06
2.24093e-06
2.24199e-06
2.24819e-06
2.24687e-06
2.24466e-06
2.23962e-06
2.23452e-06
2.23453e-06
2.23453e-06
2.23453e-06
2.24806e-06
2.2447e-06
2.24171e-06
2.23452e-06
2.23452e-06
2.23453e-06
2.23453e-06
2.23453e-06
2.23453e-06
2.25164e-06
2.24853e-06
2.245e-06
2.24145e-06
2.23452e-06
2.23453e-06
2.23453e-06
2.23453e-06
2.23452e-06
2.23452e-06
2.25121e-06
2.24604e-06
2.24533e-06
2.24096e-06
2.23453e-06
2.23453e-06
2.23453e-06
2.23452e-06
2.23452e-06
2.23452e-06
2.25044e-06
2.24149e-06
2.24199e-06
2.23453e-06
2.23453e-06
2.23453e-06
2.23452e-06
2.23452e-06
2.23451e-06
2.25173e-06
2.24691e-06
2.24822e-06
2.24806e-06
2.23454e-06
2.23453e-06
2.23452e-06
2.23451e-06
2.25462e-06
2.24821e-06
2.2477e-06
2.2469e-06
2.24468e-06
2.25167e-06
2.25141e-06
2.25052e-06
2.25182e-06
2.24855e-06
2.25006e-06
2.24855e-06
2.24599e-06
2.24167e-06
2.24691e-06
2.24772e-06
2.21504e-06
2.21541e-06
2.21468e-06
2.21184e-06
2.21154e-06
2.211e-06
2.21208e-06
2.2183e-06
2.21698e-06
2.21477e-06
2.20972e-06
2.20463e-06
2.20463e-06
2.20463e-06
2.20463e-06
2.21816e-06
2.2148e-06
2.21181e-06
2.20463e-06
2.20463e-06
2.20463e-06
2.20463e-06
2.20463e-06
2.20463e-06
2.22174e-06
2.21863e-06
2.21508e-06
2.21153e-06
2.20463e-06
2.20463e-06
2.20463e-06
2.20463e-06
2.20463e-06
2.20463e-06
2.22132e-06
2.21615e-06
2.21546e-06
2.21098e-06
2.20462e-06
2.20462e-06
2.20463e-06
2.20463e-06
2.20464e-06
2.20464e-06
2.22056e-06
2.21161e-06
2.21209e-06
2.20462e-06
2.20462e-06
2.20462e-06
2.20464e-06
2.20465e-06
2.20464e-06
2.22186e-06
2.21704e-06
2.21832e-06
2.21815e-06
2.20461e-06
2.20462e-06
2.20464e-06
2.20466e-06
2.22477e-06
2.21836e-06
2.21782e-06
2.21698e-06
2.21476e-06
2.22173e-06
2.22126e-06
2.2205e-06
2.22196e-06
2.21872e-06
2.2202e-06
2.21862e-06
2.21619e-06
2.21158e-06
2.21705e-06
2.21788e-06
2.18515e-06
2.18555e-06
2.18477e-06
2.18193e-06
2.18159e-06
2.18113e-06
2.18219e-06
2.1884e-06
2.18708e-06
2.18486e-06
2.17982e-06
2.17474e-06
2.17474e-06
2.17474e-06
2.17473e-06
2.18827e-06
2.1849e-06
2.18191e-06
2.17473e-06
2.17473e-06
2.17473e-06
2.17474e-06
2.17474e-06
2.17474e-06
2.19184e-06
2.18873e-06
2.1852e-06
2.18162e-06
2.17473e-06
2.17473e-06
2.17473e-06
2.17474e-06
2.17474e-06
2.17474e-06
2.19142e-06
2.18625e-06
2.18557e-06
2.1811e-06
2.17473e-06
2.17473e-06
2.17473e-06
2.17474e-06
2.17474e-06
2.17474e-06
2.19066e-06
2.18171e-06
2.1822e-06
2.17472e-06
2.17473e-06
2.17473e-06
2.17474e-06
2.17475e-06
2.17474e-06
2.19197e-06
2.18715e-06
2.18841e-06
2.18825e-06
2.17472e-06
2.17473e-06
2.17475e-06
2.17476e-06
2.19486e-06
2.18847e-06
2.18793e-06
2.18707e-06
2.18487e-06
2.19186e-06
2.19141e-06
2.19064e-06
2.19207e-06
2.18883e-06
2.19032e-06
2.18867e-06
2.1863e-06
2.18175e-06
2.18718e-06
2.18802e-06
2.1553e-06
2.15563e-06
2.15489e-06
2.15206e-06
2.15176e-06
2.15122e-06
2.15229e-06
2.1585e-06
2.15717e-06
2.15498e-06
2.14993e-06
2.14483e-06
2.14483e-06
2.14483e-06
2.14483e-06
2.15835e-06
2.155e-06
2.15203e-06
2.14484e-06
2.14484e-06
2.14483e-06
2.14483e-06
2.14483e-06
2.14483e-06
2.16194e-06
2.15883e-06
2.15526e-06
2.15175e-06
2.14484e-06
2.14484e-06
2.14483e-06
2.14483e-06
2.14483e-06
2.14483e-06
2.16151e-06
2.15634e-06
2.15564e-06
2.1512e-06
2.14484e-06
2.14484e-06
2.14483e-06
2.14483e-06
2.14482e-06
2.14482e-06
2.16074e-06
2.15179e-06
2.1523e-06
2.14485e-06
2.14484e-06
2.14483e-06
2.14482e-06
2.14482e-06
2.14481e-06
2.16205e-06
2.15723e-06
2.15853e-06
2.15835e-06
2.14484e-06
2.14483e-06
2.14482e-06
2.14482e-06
2.16493e-06
2.15853e-06
2.15802e-06
2.1572e-06
2.15498e-06
2.16196e-06
2.16161e-06
2.16085e-06
2.16216e-06
2.15886e-06
2.16039e-06
2.15883e-06
2.15633e-06
2.15188e-06
2.15729e-06
2.15809e-06
2.1254e-06
2.12575e-06
2.12498e-06
2.12214e-06
2.12185e-06
2.12132e-06
2.12242e-06
2.12861e-06
2.12728e-06
2.12507e-06
2.12002e-06
2.11492e-06
2.11492e-06
2.11493e-06
2.11493e-06
2.12845e-06
2.1251e-06
2.12211e-06
2.11493e-06
2.11493e-06
2.11493e-06
2.11493e-06
2.11493e-06
2.11493e-06
2.13204e-06
2.12892e-06
2.12541e-06
2.12184e-06
2.11494e-06
2.11494e-06
2.11493e-06
2.11493e-06
2.11493e-06
2.11492e-06
2.13161e-06
2.12643e-06
2.12579e-06
2.12132e-06
2.11494e-06
2.11494e-06
2.11494e-06
2.11493e-06
2.11492e-06
2.11492e-06
2.13084e-06
2.12189e-06
2.12244e-06
2.11496e-06
2.11495e-06
2.11494e-06
2.11493e-06
2.11492e-06
2.11491e-06
2.13213e-06
2.12732e-06
2.12866e-06
2.12848e-06
2.11495e-06
2.11495e-06
2.11493e-06
2.11492e-06
2.13502e-06
2.1286e-06
2.12811e-06
2.12734e-06
2.12511e-06
2.13207e-06
2.13166e-06
2.13094e-06
2.13222e-06
2.12894e-06
2.13046e-06
2.12897e-06
2.12637e-06
2.12205e-06
2.12732e-06
2.12812e-06
2.09549e-06
2.09595e-06
2.09509e-06
2.09225e-06
2.09195e-06
2.09145e-06
2.09248e-06
2.09871e-06
2.09739e-06
2.09517e-06
2.09013e-06
2.08504e-06
2.08503e-06
2.08503e-06
2.08503e-06
2.09857e-06
2.0952e-06
2.09222e-06
2.08503e-06
2.08504e-06
2.08503e-06
2.08503e-06
2.08503e-06
2.08503e-06
2.10214e-06
2.09903e-06
2.0955e-06
2.09194e-06
2.08504e-06
2.08504e-06
2.08503e-06
2.08503e-06
2.08503e-06
2.08502e-06
2.10171e-06
2.09654e-06
2.09588e-06
2.09141e-06
2.08504e-06
2.08504e-06
2.08503e-06
2.08503e-06
2.08502e-06
2.08502e-06
2.10095e-06
2.09199e-06
2.09251e-06
2.08505e-06
2.08504e-06
2.08503e-06
2.08503e-06
2.08502e-06
2.08502e-06
2.10225e-06
2.09742e-06
2.09874e-06
2.09856e-06
2.08504e-06
2.08503e-06
2.08502e-06
2.08502e-06
2.10514e-06
2.09872e-06
2.09821e-06
2.09741e-06
2.09518e-06
2.10215e-06
2.10189e-06
2.10103e-06
2.10233e-06
2.09908e-06
2.10059e-06
2.09898e-06
2.09655e-06
2.09214e-06
2.09746e-06
2.0983e-06
2.0656e-06
2.06599e-06
2.06519e-06
2.06234e-06
2.06204e-06
2.06151e-06
2.06262e-06
2.06881e-06
2.06749e-06
2.06528e-06
2.06023e-06
2.05514e-06
2.05514e-06
2.05514e-06
2.05514e-06
2.06868e-06
2.06531e-06
2.06231e-06
2.05514e-06
2.05514e-06
2.05514e-06
2.05514e-06
2.05514e-06
2.05513e-06
2.07225e-06
2.06913e-06
2.06558e-06
2.06202e-06
2.05513e-06
2.05514e-06
2.05513e-06
2.05513e-06
2.05513e-06
2.05513e-06
2.07181e-06
2.06664e-06
2.06598e-06
2.06153e-06
2.05513e-06
2.05513e-06
2.05513e-06
2.05513e-06
2.05513e-06
2.05513e-06
2.07105e-06
2.0621e-06
2.06258e-06
2.05513e-06
2.05513e-06
2.05513e-06
2.05513e-06
2.05512e-06
2.05512e-06
2.07234e-06
2.06752e-06
2.06882e-06
2.06861e-06
2.05513e-06
2.05513e-06
2.05513e-06
2.05514e-06
2.07525e-06
2.06882e-06
2.06831e-06
2.0675e-06
2.06526e-06
2.07224e-06
2.07184e-06
2.07109e-06
2.07242e-06
2.06918e-06
2.0707e-06
2.0691e-06
2.06663e-06
2.06214e-06
2.06757e-06
2.06841e-06
2.03568e-06
2.03608e-06
2.03532e-06
2.03248e-06
2.03216e-06
2.03162e-06
2.03272e-06
2.03891e-06
2.03759e-06
2.03538e-06
2.03033e-06
2.02526e-06
2.02525e-06
2.02525e-06
2.02524e-06
2.03878e-06
2.03541e-06
2.0324e-06
2.02525e-06
2.02525e-06
2.02525e-06
2.02524e-06
2.02524e-06
2.02524e-06
2.04235e-06
2.03924e-06
2.03566e-06
2.03225e-06
2.02524e-06
2.02524e-06
2.02524e-06
2.02524e-06
2.02524e-06
2.02524e-06
2.04192e-06
2.03675e-06
2.03597e-06
2.03162e-06
2.02523e-06
2.02523e-06
2.02523e-06
2.02523e-06
2.02523e-06
2.02523e-06
2.04115e-06
2.0322e-06
2.03265e-06
2.02522e-06
2.02522e-06
2.02523e-06
2.02523e-06
2.02523e-06
2.02523e-06
2.04244e-06
2.03763e-06
2.0389e-06
2.03872e-06
2.02521e-06
2.02523e-06
2.02523e-06
2.02523e-06
2.04535e-06
2.03894e-06
2.03842e-06
2.03757e-06
2.03532e-06
2.04232e-06
2.04192e-06
2.04117e-06
2.04253e-06
2.03929e-06
2.04083e-06
2.03917e-06
2.03673e-06
2.03222e-06
2.03768e-06
2.03852e-06
2.00579e-06
2.00619e-06
2.00542e-06
2.00259e-06
2.00226e-06
2.00172e-06
2.00283e-06
2.00902e-06
2.00769e-06
2.00551e-06
2.00046e-06
1.99536e-06
1.99536e-06
1.99535e-06
1.99535e-06
2.00888e-06
2.00551e-06
2.0026e-06
1.99535e-06
1.99536e-06
1.99535e-06
1.99535e-06
1.99534e-06
1.99534e-06
2.01245e-06
2.00933e-06
2.00597e-06
2.00231e-06
1.99535e-06
1.99535e-06
1.99534e-06
1.99534e-06
1.99534e-06
1.99534e-06
2.01201e-06
2.00685e-06
2.00606e-06
2.00172e-06
1.99533e-06
1.99533e-06
1.99533e-06
1.99534e-06
1.99534e-06
1.99534e-06
2.01125e-06
2.00231e-06
2.00269e-06
1.99533e-06
1.99532e-06
1.99533e-06
1.99533e-06
1.99533e-06
1.99534e-06
2.01255e-06
2.00775e-06
2.00895e-06
2.00879e-06
1.99532e-06
1.99532e-06
1.99532e-06
1.99533e-06
2.01545e-06
2.00905e-06
2.00853e-06
2.00766e-06
2.00536e-06
2.01242e-06
2.01205e-06
2.01129e-06
2.01261e-06
2.00939e-06
2.01093e-06
2.00927e-06
2.00684e-06
2.00232e-06
2.00775e-06
2.00861e-06
1.97588e-06
1.97628e-06
1.97552e-06
1.97266e-06
1.97235e-06
1.97182e-06
1.97293e-06
1.97912e-06
1.97779e-06
1.97558e-06
1.97057e-06
1.96546e-06
1.96545e-06
1.96545e-06
1.96545e-06
1.97898e-06
1.97562e-06
1.97261e-06
1.96546e-06
1.96545e-06
1.96545e-06
1.96545e-06
1.96545e-06
1.96544e-06
1.98256e-06
1.97944e-06
1.97597e-06
1.97243e-06
1.96544e-06
1.96545e-06
1.96544e-06
1.96544e-06
1.96544e-06
1.96544e-06
1.98212e-06
1.97695e-06
1.97624e-06
1.97181e-06
1.96543e-06
1.96543e-06
1.96544e-06
1.96544e-06
1.96544e-06
1.96544e-06
1.98136e-06
1.97241e-06
1.97284e-06
1.96543e-06
1.96542e-06
1.96543e-06
1.96543e-06
1.96543e-06
1.96544e-06
1.98265e-06
1.97784e-06
1.97909e-06
1.97893e-06
1.96542e-06
1.96542e-06
1.96543e-06
1.96543e-06
1.98555e-06
1.97915e-06
1.97864e-06
1.97774e-06
1.97558e-06
1.98257e-06
1.98213e-06
1.98138e-06
1.98273e-06
1.97949e-06
1.98103e-06
1.97939e-06
1.97694e-06
1.97242e-06
1.97787e-06
1.97871e-06
1.94598e-06
1.94639e-06
1.94561e-06
1.94275e-06
1.94245e-06
1.94192e-06
1.94302e-06
1.94922e-06
1.9479e-06
1.94565e-06
1.94065e-06
1.93555e-06
1.93555e-06
1.93555e-06
1.93555e-06
1.94908e-06
1.94572e-06
1.94273e-06
1.93554e-06
1.93554e-06
1.93554e-06
1.93554e-06
1.93554e-06
1.93555e-06
1.95267e-06
1.94955e-06
1.94599e-06
1.94244e-06
1.93554e-06
1.93554e-06
1.93554e-06
1.93554e-06
1.93554e-06
1.93554e-06
1.95224e-06
1.94706e-06
1.94635e-06
1.94193e-06
1.93554e-06
1.93554e-06
1.93554e-06
1.93554e-06
1.93554e-06
1.93554e-06
1.95147e-06
1.94252e-06
1.94298e-06
1.93554e-06
1.93554e-06
1.93554e-06
1.93554e-06
1.93554e-06
1.93554e-06
1.95275e-06
1.94794e-06
1.94923e-06
1.94904e-06
1.93553e-06
1.93554e-06
1.93554e-06
1.93554e-06
1.95566e-06
1.94925e-06
1.94873e-06
1.94786e-06
1.94568e-06
1.95266e-06
1.95223e-06
1.95149e-06
1.95286e-06
1.94961e-06
1.95114e-06
1.94948e-06
1.94704e-06
1.94253e-06
1.948e-06
1.94884e-06
1.91607e-06
1.91648e-06
1.91571e-06
1.91284e-06
1.91254e-06
1.91202e-06
1.91312e-06
1.91932e-06
1.91799e-06
1.91574e-06
1.91075e-06
1.90565e-06
1.90565e-06
1.90565e-06
1.90565e-06
1.91918e-06
1.91582e-06
1.91283e-06
1.90564e-06
1.90564e-06
1.90565e-06
1.90565e-06
1.90565e-06
1.90565e-06
1.92276e-06
1.91965e-06
1.9161e-06
1.91255e-06
1.90564e-06
1.90564e-06
1.90564e-06
1.90564e-06
1.90565e-06
1.90565e-06
1.92233e-06
1.91715e-06
1.91645e-06
1.91202e-06
1.90564e-06
1.90564e-06
1.90564e-06
1.90564e-06
1.90564e-06
1.90565e-06
1.92157e-06
1.91262e-06
1.91309e-06
1.90564e-06
1.90564e-06
1.90564e-06
1.90564e-06
1.90564e-06
1.90564e-06
1.92286e-06
1.91805e-06
1.91933e-06
1.91914e-06
1.90564e-06
1.90564e-06
1.90564e-06
1.90564e-06
1.92576e-06