/*--------------------------------*- C++ -*----------------------------------*\
| =========                 |                                                 |
| \\      /  F ield         | OpenFOAM: The Open Source CFD Toolbox           |
|  \\    /   O peration     | Version:  v2012                                 |
|   \\  /    A nd           | Website:  www.openfoam.com                      |
|    \\/     M anipulation  |                                                 |
\*---------------------------------------------------------------------------*/
FoamFile
{
    version     2.0;
    format      ascii;
    class       volScalarField;
    location    "13";
    object      p;
}
// * * * * * * * * * * * * * * * * * * * * * * * * * * * * * * * * * * * * * //

dimensions      [0 2 -2 0 0 0 0];


internalField   nonuniform List<scalar> 
244288
(
1.50666e-06
1.50682e-06
1.50678e-06
1.50667e-06
1.50662e-06
1.50669e-06
1.50679e-06
1.50682e-06
1.50685e-06
1.50662e-06
1.50636e-06
1.50626e-06
1.50638e-06
1.50666e-06
1.50686e-06
1.50678e-06
1.50662e-06
1.5062e-06
1.50585e-06
1.50573e-06
1.50588e-06
1.50626e-06
1.50666e-06
1.50677e-06
1.50667e-06
1.50636e-06
1.50585e-06
1.50545e-06
1.50532e-06
1.50549e-06
1.50591e-06
1.50641e-06
1.50668e-06
1.50666e-06
1.50662e-06
1.50626e-06
1.50573e-06
1.50532e-06
1.50518e-06
1.50536e-06
1.50579e-06
1.50632e-06
1.50663e-06
1.50669e-06
1.50638e-06
1.50588e-06
1.50549e-06
1.50536e-06
1.50553e-06
1.50595e-06
1.50644e-06
1.5067e-06
1.50679e-06
1.50666e-06
1.50626e-06
1.50591e-06
1.50579e-06
1.50595e-06
1.50631e-06
1.5067e-06
1.50678e-06
1.50686e-06
1.50666e-06
1.50641e-06
1.50632e-06
1.50644e-06
1.5067e-06
1.50686e-06
1.50677e-06
1.50668e-06
1.50663e-06
1.5067e-06
1.50678e-06
1.48363e-06
1.48327e-06
1.48309e-06
1.48167e-06
1.48158e-06
1.48159e-06
1.4816e-06
1.48303e-06
1.48315e-06
1.48309e-06
1.48123e-06
1.47876e-06
1.47876e-06
1.47876e-06
1.47876e-06
1.48126e-06
1.48175e-06
1.48167e-06
1.47876e-06
1.47871e-06
1.47874e-06
1.47874e-06
1.47871e-06
1.47876e-06
1.48166e-06
1.48329e-06
1.48364e-06
1.48158e-06
1.47876e-06
1.47874e-06
1.47879e-06
1.47879e-06
1.47874e-06
1.47876e-06
1.48159e-06
1.483e-06
1.48327e-06
1.48159e-06
1.47876e-06
1.47874e-06
1.47879e-06
1.47879e-06
1.47874e-06
1.47876e-06
1.48155e-06
1.4819e-06
1.4816e-06
1.47876e-06
1.47871e-06
1.47874e-06
1.47874e-06
1.47871e-06
1.47876e-06
1.48162e-06
1.48317e-06
1.48303e-06
1.48126e-06
1.47876e-06
1.47876e-06
1.47876e-06
1.47876e-06
1.48119e-06
1.48176e-06
1.48331e-06
1.48315e-06
1.48175e-06
1.48166e-06
1.48159e-06
1.48155e-06
1.48162e-06
1.48176e-06
1.483e-06
1.48329e-06
1.483e-06
1.48189e-06
1.48317e-06
1.48331e-06
1.46784e-06
1.4677e-06
1.46762e-06
1.46606e-06
1.46598e-06
1.46595e-06
1.46602e-06
1.46752e-06
1.46771e-06
1.46762e-06
1.46562e-06
1.46298e-06
1.46298e-06
1.46298e-06
1.46298e-06
1.46565e-06
1.46624e-06
1.46606e-06
1.46298e-06
1.46295e-06
1.46296e-06
1.46296e-06
1.46295e-06
1.46298e-06
1.46611e-06
1.46777e-06
1.46783e-06
1.46598e-06
1.46298e-06
1.46296e-06
1.46296e-06
1.46296e-06
1.46296e-06
1.46298e-06
1.46604e-06
1.46751e-06
1.4677e-06
1.46595e-06
1.46298e-06
1.46296e-06
1.46296e-06
1.46296e-06
1.46296e-06
1.46298e-06
1.466e-06
1.46633e-06
1.46603e-06
1.46298e-06
1.46295e-06
1.46296e-06
1.46296e-06
1.46295e-06
1.46298e-06
1.46608e-06
1.46768e-06
1.46752e-06
1.46565e-06
1.46298e-06
1.46298e-06
1.46298e-06
1.46298e-06
1.46563e-06
1.4662e-06
1.4678e-06
1.46771e-06
1.46624e-06
1.46611e-06
1.46604e-06
1.466e-06
1.46608e-06
1.4662e-06
1.46755e-06
1.46777e-06
1.46751e-06
1.46633e-06
1.46768e-06
1.4678e-06
1.45211e-06
1.45198e-06
1.45188e-06
1.45032e-06
1.45023e-06
1.45019e-06
1.45028e-06
1.45178e-06
1.45198e-06
1.45188e-06
1.44985e-06
1.44721e-06
1.44721e-06
1.44721e-06
1.44721e-06
1.44989e-06
1.4505e-06
1.45032e-06
1.44721e-06
1.4472e-06
1.4472e-06
1.4472e-06
1.4472e-06
1.44721e-06
1.45039e-06
1.45204e-06
1.45211e-06
1.45023e-06
1.44721e-06
1.4472e-06
1.4472e-06
1.4472e-06
1.4472e-06
1.44721e-06
1.45032e-06
1.45179e-06
1.45198e-06
1.45019e-06
1.44721e-06
1.4472e-06
1.4472e-06
1.4472e-06
1.4472e-06
1.44721e-06
1.45029e-06
1.45062e-06
1.45028e-06
1.44721e-06
1.4472e-06
1.4472e-06
1.4472e-06
1.4472e-06
1.44721e-06
1.45035e-06
1.45196e-06
1.45178e-06
1.44989e-06
1.44721e-06
1.44721e-06
1.44721e-06
1.44721e-06
1.44992e-06
1.45048e-06
1.45207e-06
1.45198e-06
1.4505e-06
1.45039e-06
1.45032e-06
1.45029e-06
1.45035e-06
1.45048e-06
1.45184e-06
1.45204e-06
1.45179e-06
1.45062e-06
1.45196e-06
1.45207e-06
1.43636e-06
1.43623e-06
1.43613e-06
1.43456e-06
1.43447e-06
1.43443e-06
1.43452e-06
1.43603e-06
1.43623e-06
1.43613e-06
1.43409e-06
1.43145e-06
1.43145e-06
1.43145e-06
1.43145e-06
1.43413e-06
1.43475e-06
1.43456e-06
1.43145e-06
1.43145e-06
1.43145e-06
1.43145e-06
1.43145e-06
1.43145e-06
1.43463e-06
1.43629e-06
1.43636e-06
1.43447e-06
1.43145e-06
1.43145e-06
1.43145e-06
1.43145e-06
1.43145e-06
1.43145e-06
1.43457e-06
1.43604e-06
1.43623e-06
1.43443e-06
1.43145e-06
1.43145e-06
1.43145e-06
1.43145e-06
1.43145e-06
1.43145e-06
1.43454e-06
1.43487e-06
1.43452e-06
1.43145e-06
1.43145e-06
1.43145e-06
1.43145e-06
1.43145e-06
1.43145e-06
1.43461e-06
1.43621e-06
1.43603e-06
1.43413e-06
1.43145e-06
1.43145e-06
1.43145e-06
1.43145e-06
1.43418e-06
1.43473e-06
1.43632e-06
1.43623e-06
1.43475e-06
1.43463e-06
1.43457e-06
1.43454e-06
1.43461e-06
1.43473e-06
1.43609e-06
1.43629e-06
1.43604e-06
1.43487e-06
1.43621e-06
1.43632e-06
1.42061e-06
1.42048e-06
1.42037e-06
1.4188e-06
1.41871e-06
1.41867e-06
1.41877e-06
1.42027e-06
1.42047e-06
1.42037e-06
1.41834e-06
1.41569e-06
1.41569e-06
1.41569e-06
1.41569e-06
1.41837e-06
1.419e-06
1.4188e-06
1.41569e-06
1.41569e-06
1.41569e-06
1.41569e-06
1.41569e-06
1.41569e-06
1.41888e-06
1.42054e-06
1.42061e-06
1.41871e-06
1.41569e-06
1.41569e-06
1.41569e-06
1.41569e-06
1.41569e-06
1.41569e-06
1.41882e-06
1.42029e-06
1.42048e-06
1.41867e-06
1.41569e-06
1.41569e-06
1.41569e-06
1.41569e-06
1.41569e-06
1.41569e-06
1.41879e-06
1.41912e-06
1.41877e-06
1.41569e-06
1.41569e-06
1.41569e-06
1.41569e-06
1.41569e-06
1.41569e-06
1.41885e-06
1.42046e-06
1.42027e-06
1.41837e-06
1.41569e-06
1.41569e-06
1.41569e-06
1.41569e-06
1.41842e-06
1.41897e-06
1.42057e-06
1.42047e-06
1.419e-06
1.41888e-06
1.41882e-06
1.41879e-06
1.41885e-06
1.41897e-06
1.42033e-06
1.42054e-06
1.42029e-06
1.41912e-06
1.42046e-06
1.42057e-06
1.40485e-06
1.40472e-06
1.40462e-06
1.40305e-06
1.40296e-06
1.40291e-06
1.40301e-06
1.40452e-06
1.40472e-06
1.40462e-06
1.40258e-06
1.39993e-06
1.39993e-06
1.39993e-06
1.39993e-06
1.40262e-06
1.40324e-06
1.40305e-06
1.39993e-06
1.39993e-06
1.39993e-06
1.39993e-06
1.39993e-06
1.39993e-06
1.40312e-06
1.40478e-06
1.40485e-06
1.40296e-06
1.39993e-06
1.39993e-06
1.39993e-06
1.39993e-06
1.39993e-06
1.39993e-06
1.40306e-06
1.40453e-06
1.40473e-06
1.40291e-06
1.39993e-06
1.39993e-06
1.39993e-06
1.39993e-06
1.39993e-06
1.39993e-06
1.40303e-06
1.40336e-06
1.40301e-06
1.39993e-06
1.39993e-06
1.39993e-06
1.39993e-06
1.39993e-06
1.39993e-06
1.4031e-06
1.4047e-06
1.40452e-06
1.40262e-06
1.39993e-06
1.39993e-06
1.39993e-06
1.39993e-06
1.40267e-06
1.40322e-06
1.40481e-06
1.40472e-06
1.40324e-06
1.40312e-06
1.40306e-06
1.40303e-06
1.4031e-06
1.40322e-06
1.40458e-06
1.40478e-06
1.40453e-06
1.40336e-06
1.4047e-06
1.40481e-06
1.3891e-06
1.38897e-06
1.38886e-06
1.38729e-06
1.3872e-06
1.38716e-06
1.38726e-06
1.38876e-06
1.38896e-06
1.38886e-06
1.38682e-06
1.38418e-06
1.38418e-06
1.38418e-06
1.38418e-06
1.38686e-06
1.38748e-06
1.38729e-06
1.38418e-06
1.38418e-06
1.38418e-06
1.38418e-06
1.38418e-06
1.38418e-06
1.38737e-06
1.38903e-06
1.3891e-06
1.3872e-06
1.38418e-06
1.38418e-06
1.38418e-06
1.38418e-06
1.38418e-06
1.38418e-06
1.38731e-06
1.38878e-06
1.38897e-06
1.38716e-06
1.38418e-06
1.38418e-06
1.38418e-06
1.38418e-06
1.38418e-06
1.38418e-06
1.38728e-06
1.3876e-06
1.38726e-06
1.38418e-06
1.38418e-06
1.38418e-06
1.38418e-06
1.38418e-06
1.38418e-06
1.38734e-06
1.38894e-06
1.38876e-06
1.38686e-06
1.38418e-06
1.38418e-06
1.38418e-06
1.38418e-06
1.38691e-06
1.38746e-06
1.38906e-06
1.38896e-06
1.38748e-06
1.38737e-06
1.38731e-06
1.38728e-06
1.38734e-06
1.38746e-06
1.38882e-06
1.38903e-06
1.38878e-06
1.38761e-06
1.38894e-06
1.38906e-06
1.37334e-06
1.37321e-06
1.37311e-06
1.37154e-06
1.37144e-06
1.3714e-06
1.3715e-06
1.37301e-06
1.37321e-06
1.37311e-06
1.37107e-06
1.36842e-06
1.36842e-06
1.36842e-06
1.36842e-06
1.3711e-06
1.37173e-06
1.37154e-06
1.36842e-06
1.36842e-06
1.36842e-06
1.36842e-06
1.36842e-06
1.36842e-06
1.37161e-06
1.37327e-06
1.37334e-06
1.37144e-06
1.36842e-06
1.36842e-06
1.36842e-06
1.36842e-06
1.36842e-06
1.36842e-06
1.37155e-06
1.37302e-06
1.37321e-06
1.3714e-06
1.36842e-06
1.36842e-06
1.36842e-06
1.36842e-06
1.36842e-06
1.36842e-06
1.37152e-06
1.37185e-06
1.3715e-06
1.36842e-06
1.36842e-06
1.36842e-06
1.36842e-06
1.36842e-06
1.36842e-06
1.37158e-06
1.37319e-06
1.37301e-06
1.3711e-06
1.36842e-06
1.36842e-06
1.36842e-06
1.36842e-06
1.37116e-06
1.37171e-06
1.3733e-06
1.37321e-06
1.37173e-06
1.37161e-06
1.37155e-06
1.37152e-06
1.37158e-06
1.37171e-06
1.37307e-06
1.37327e-06
1.37302e-06
1.37185e-06
1.37319e-06
1.3733e-06
1.35758e-06
1.35745e-06
1.35735e-06
1.35578e-06
1.35569e-06
1.35565e-06
1.35574e-06
1.35725e-06
1.35745e-06
1.35735e-06
1.35531e-06
1.35266e-06
1.35266e-06
1.35266e-06
1.35266e-06
1.35535e-06
1.35597e-06
1.35578e-06
1.35266e-06
1.35266e-06
1.35266e-06
1.35266e-06
1.35266e-06
1.35266e-06
1.35585e-06
1.35751e-06
1.35758e-06
1.35569e-06
1.35266e-06
1.35266e-06
1.35266e-06
1.35266e-06
1.35266e-06
1.35266e-06
1.3558e-06
1.35727e-06
1.35745e-06
1.35565e-06
1.35266e-06
1.35266e-06
1.35266e-06
1.35266e-06
1.35266e-06
1.35266e-06
1.35576e-06
1.35609e-06
1.35574e-06
1.35266e-06
1.35267e-06
1.35266e-06
1.35266e-06
1.35266e-06
1.35266e-06
1.35583e-06
1.35743e-06
1.35725e-06
1.35535e-06
1.35267e-06
1.35266e-06
1.35266e-06
1.35266e-06
1.3554e-06
1.35595e-06
1.35754e-06
1.35745e-06
1.35597e-06
1.35585e-06
1.3558e-06
1.35576e-06
1.35583e-06
1.35595e-06
1.35731e-06
1.35751e-06
1.35727e-06
1.35609e-06
1.35743e-06
1.35754e-06
1.34183e-06
1.3417e-06
1.34159e-06
1.34002e-06
1.33993e-06
1.33989e-06
1.33999e-06
1.34149e-06
1.34169e-06
1.34159e-06
1.33955e-06
1.33691e-06
1.33691e-06
1.33691e-06
1.33691e-06
1.33959e-06
1.34021e-06
1.34002e-06
1.33691e-06
1.33691e-06
1.33691e-06
1.33691e-06
1.33691e-06
1.33691e-06
1.3401e-06
1.34176e-06
1.34183e-06
1.33993e-06
1.33691e-06
1.33691e-06
1.33691e-06
1.33691e-06
1.33691e-06
1.33691e-06
1.34004e-06
1.34151e-06
1.34169e-06
1.33989e-06
1.33691e-06
1.33691e-06
1.33691e-06
1.33691e-06
1.33691e-06
1.33691e-06
1.34001e-06
1.34034e-06
1.33999e-06
1.33691e-06
1.33691e-06
1.33691e-06
1.33691e-06
1.33691e-06
1.33691e-06
1.34007e-06
1.34168e-06
1.34149e-06
1.33959e-06
1.33691e-06
1.33691e-06
1.33691e-06
1.33691e-06
1.33964e-06
1.34019e-06
1.34179e-06
1.34169e-06
1.34021e-06
1.3401e-06
1.34004e-06
1.34001e-06
1.34007e-06
1.34019e-06
1.34155e-06
1.34176e-06
1.34151e-06
1.34034e-06
1.34168e-06
1.34179e-06
1.32607e-06
1.32594e-06
1.32584e-06
1.32427e-06
1.32417e-06
1.32413e-06
1.32423e-06
1.32574e-06
1.32594e-06
1.32584e-06
1.3238e-06
1.32115e-06
1.32115e-06
1.32115e-06
1.32115e-06
1.32383e-06
1.32446e-06
1.32427e-06
1.32115e-06
1.32115e-06
1.32115e-06
1.32115e-06
1.32115e-06
1.32115e-06
1.32434e-06
1.326e-06
1.32607e-06
1.32417e-06
1.32115e-06
1.32115e-06
1.32115e-06
1.32115e-06
1.32115e-06
1.32115e-06
1.32428e-06
1.32575e-06
1.32594e-06
1.32413e-06
1.32115e-06
1.32115e-06
1.32115e-06
1.32115e-06
1.32115e-06
1.32115e-06
1.32425e-06
1.32458e-06
1.32423e-06
1.32115e-06
1.32115e-06
1.32115e-06
1.32115e-06
1.32115e-06
1.32115e-06
1.32432e-06
1.32592e-06
1.32574e-06
1.32383e-06
1.32115e-06
1.32115e-06
1.32115e-06
1.32115e-06
1.32389e-06
1.32444e-06
1.32603e-06
1.32594e-06
1.32446e-06
1.32434e-06
1.32428e-06
1.32425e-06
1.32432e-06
1.32444e-06
1.3258e-06
1.326e-06
1.32575e-06
1.32458e-06
1.32592e-06
1.32603e-06
1.31031e-06
1.31018e-06
1.31008e-06
1.30851e-06
1.30842e-06
1.30838e-06
1.30847e-06
1.30998e-06
1.31018e-06
1.31008e-06
1.30804e-06
1.3054e-06
1.3054e-06
1.3054e-06
1.3054e-06
1.30808e-06
1.3087e-06
1.30851e-06
1.3054e-06
1.3054e-06
1.3054e-06
1.3054e-06
1.3054e-06
1.3054e-06
1.30859e-06
1.31025e-06
1.31032e-06
1.30842e-06
1.3054e-06
1.3054e-06
1.3054e-06
1.3054e-06
1.3054e-06
1.3054e-06
1.30853e-06
1.31e-06
1.31018e-06
1.30838e-06
1.3054e-06
1.3054e-06
1.3054e-06
1.3054e-06
1.3054e-06
1.3054e-06
1.3085e-06
1.30882e-06
1.30847e-06
1.3054e-06
1.3054e-06
1.3054e-06
1.3054e-06
1.3054e-06
1.3054e-06
1.30856e-06
1.31016e-06
1.30998e-06
1.30808e-06
1.3054e-06
1.3054e-06
1.3054e-06
1.3054e-06
1.30813e-06
1.30868e-06
1.31027e-06
1.31018e-06
1.3087e-06
1.30859e-06
1.30853e-06
1.3085e-06
1.30856e-06
1.30868e-06
1.31004e-06
1.31025e-06
1.31e-06
1.30882e-06
1.31016e-06
1.31027e-06
1.29456e-06
1.29443e-06
1.29433e-06
1.29276e-06
1.29266e-06
1.29262e-06
1.29272e-06
1.29423e-06
1.29443e-06
1.29433e-06
1.29229e-06
1.28964e-06
1.28964e-06
1.28964e-06
1.28964e-06
1.29232e-06
1.29295e-06
1.29276e-06
1.28964e-06
1.28964e-06
1.28964e-06
1.28964e-06
1.28964e-06
1.28964e-06
1.29283e-06
1.29449e-06
1.29456e-06
1.29266e-06
1.28964e-06
1.28964e-06
1.28964e-06
1.28964e-06
1.28964e-06
1.28964e-06
1.29277e-06
1.29424e-06
1.29444e-06
1.29262e-06
1.28964e-06
1.28964e-06
1.28964e-06
1.28964e-06
1.28964e-06
1.28964e-06
1.29274e-06
1.29307e-06
1.29272e-06
1.28964e-06
1.28964e-06
1.28964e-06
1.28964e-06
1.28964e-06
1.28964e-06
1.2928e-06
1.29441e-06
1.29423e-06
1.29232e-06
1.28964e-06
1.28964e-06
1.28964e-06
1.28964e-06
1.29238e-06
1.29293e-06
1.29452e-06
1.29443e-06
1.29295e-06
1.29283e-06
1.29277e-06
1.29274e-06
1.2928e-06
1.29293e-06
1.29429e-06
1.29449e-06
1.29424e-06
1.29307e-06
1.29441e-06
1.29452e-06
1.2788e-06
1.27867e-06
1.27857e-06
1.277e-06
1.27691e-06
1.27687e-06
1.27696e-06
1.27847e-06
1.27867e-06
1.27857e-06
1.27653e-06
1.27389e-06
1.27389e-06
1.27389e-06
1.27389e-06
1.27657e-06
1.27719e-06
1.277e-06
1.27389e-06
1.27389e-06
1.27389e-06
1.27389e-06
1.27389e-06
1.27389e-06
1.27708e-06
1.27873e-06
1.2788e-06
1.27691e-06
1.27389e-06
1.27389e-06
1.27389e-06
1.27389e-06
1.27389e-06
1.27389e-06
1.27702e-06
1.27849e-06
1.27867e-06
1.27687e-06
1.27389e-06
1.27389e-06
1.27389e-06
1.27389e-06
1.27389e-06
1.27389e-06
1.27699e-06
1.27731e-06
1.27696e-06
1.27389e-06
1.27389e-06
1.27389e-06
1.27389e-06
1.27389e-06
1.27389e-06
1.27705e-06
1.27865e-06
1.27847e-06
1.27657e-06
1.27389e-06
1.27389e-06
1.27389e-06
1.27389e-06
1.27662e-06
1.27717e-06
1.27876e-06
1.27867e-06
1.27719e-06
1.27708e-06
1.27702e-06
1.27699e-06
1.27705e-06
1.27717e-06
1.27853e-06
1.27873e-06
1.27849e-06
1.27731e-06
1.27865e-06
1.27876e-06
1.26305e-06
1.26292e-06
1.26282e-06
1.26125e-06
1.26115e-06
1.26111e-06
1.26121e-06
1.26272e-06
1.26291e-06
1.26282e-06
1.26078e-06
1.25813e-06
1.25813e-06
1.25813e-06
1.25813e-06
1.26081e-06
1.26144e-06
1.26125e-06
1.25813e-06
1.25813e-06
1.25813e-06
1.25813e-06
1.25813e-06
1.25813e-06
1.26132e-06
1.26298e-06
1.26305e-06
1.26115e-06
1.25813e-06
1.25813e-06
1.25813e-06
1.25813e-06
1.25813e-06
1.25813e-06
1.26126e-06
1.26273e-06
1.26292e-06
1.26111e-06
1.25813e-06
1.25813e-06
1.25813e-06
1.25813e-06
1.25813e-06
1.25813e-06
1.26123e-06
1.26156e-06
1.26121e-06
1.25813e-06
1.25813e-06
1.25813e-06
1.25813e-06
1.25813e-06
1.25813e-06
1.26129e-06
1.2629e-06
1.26272e-06
1.26081e-06
1.25813e-06
1.25813e-06
1.25813e-06
1.25813e-06
1.26086e-06
1.26142e-06
1.26301e-06
1.26291e-06
1.26144e-06
1.26132e-06
1.26126e-06
1.26123e-06
1.26129e-06
1.26142e-06
1.26278e-06
1.26298e-06
1.26273e-06
1.26156e-06
1.2629e-06
1.26301e-06
1.24729e-06
1.24716e-06
1.24706e-06
1.24549e-06
1.2454e-06
1.24536e-06
1.24545e-06
1.24696e-06
1.24716e-06
1.24706e-06
1.24502e-06
1.24237e-06
1.24237e-06
1.24237e-06
1.24237e-06
1.24506e-06
1.24568e-06
1.24549e-06
1.24237e-06
1.24237e-06
1.24237e-06
1.24237e-06
1.24237e-06
1.24237e-06
1.24556e-06
1.24722e-06
1.24729e-06
1.2454e-06
1.24237e-06
1.24237e-06
1.24237e-06
1.24237e-06
1.24237e-06
1.24237e-06
1.24551e-06
1.24698e-06
1.24716e-06
1.24536e-06
1.24237e-06
1.24237e-06
1.24237e-06
1.24237e-06
1.24237e-06
1.24237e-06
1.24547e-06
1.2458e-06
1.24545e-06
1.24237e-06
1.24237e-06
1.24237e-06
1.24237e-06
1.24237e-06
1.24237e-06
1.24554e-06
1.24714e-06
1.24696e-06
1.24506e-06
1.24237e-06
1.24237e-06
1.24237e-06
1.24237e-06
1.24511e-06
1.24566e-06
1.24725e-06
1.24716e-06
1.24568e-06
1.24556e-06
1.24551e-06
1.24547e-06
1.24554e-06
1.24566e-06
1.24702e-06
1.24722e-06
1.24698e-06
1.2458e-06
1.24714e-06
1.24725e-06
1.23154e-06
1.23141e-06
1.2313e-06
1.22973e-06
1.22964e-06
1.2296e-06
1.2297e-06
1.2312e-06
1.2314e-06
1.2313e-06
1.22926e-06
1.22662e-06
1.22662e-06
1.22662e-06
1.22662e-06
1.2293e-06
1.22992e-06
1.22973e-06
1.22662e-06
1.22662e-06
1.22662e-06
1.22662e-06
1.22662e-06
1.22662e-06
1.22981e-06
1.23147e-06
1.23154e-06
1.22964e-06
1.22662e-06
1.22662e-06
1.22662e-06
1.22662e-06
1.22662e-06
1.22662e-06
1.22975e-06
1.23122e-06
1.23141e-06
1.2296e-06
1.22662e-06
1.22662e-06
1.22662e-06
1.22662e-06
1.22662e-06
1.22662e-06
1.22972e-06
1.23005e-06
1.2297e-06
1.22662e-06
1.22662e-06
1.22662e-06
1.22662e-06
1.22662e-06
1.22662e-06
1.22978e-06
1.23139e-06
1.2312e-06
1.2293e-06
1.22662e-06
1.22662e-06
1.22662e-06
1.22662e-06
1.22935e-06
1.2299e-06
1.2315e-06
1.2314e-06
1.22993e-06
1.22981e-06
1.22975e-06
1.22972e-06
1.22978e-06
1.2299e-06
1.23126e-06
1.23147e-06
1.23122e-06
1.23004e-06
1.23138e-06
1.2315e-06
1.21578e-06
1.21565e-06
1.21555e-06
1.21398e-06
1.21388e-06
1.21384e-06
1.21394e-06
1.21545e-06
1.21565e-06
1.21555e-06
1.21351e-06
1.21086e-06
1.21086e-06
1.21086e-06
1.21086e-06
1.21354e-06
1.21417e-06
1.21398e-06
1.21086e-06
1.21086e-06
1.21086e-06
1.21086e-06
1.21086e-06
1.21086e-06
1.21405e-06
1.21571e-06
1.21578e-06
1.21388e-06
1.21086e-06
1.21086e-06
1.21086e-06
1.21086e-06
1.21086e-06
1.21086e-06
1.21399e-06
1.21546e-06
1.21565e-06
1.21384e-06
1.21086e-06
1.21086e-06
1.21086e-06
1.21086e-06
1.21086e-06
1.21086e-06
1.21396e-06
1.21429e-06
1.21394e-06
1.21086e-06
1.21086e-06
1.21086e-06
1.21086e-06
1.21086e-06
1.21086e-06
1.21402e-06
1.21563e-06
1.21545e-06
1.21354e-06
1.21086e-06
1.21086e-06
1.21086e-06
1.21086e-06
1.2136e-06
1.21415e-06
1.21574e-06
1.21565e-06
1.21417e-06
1.21405e-06
1.21399e-06
1.21396e-06
1.21402e-06
1.21415e-06
1.21551e-06
1.21571e-06
1.21546e-06
1.21429e-06
1.21563e-06
1.21574e-06
1.20002e-06
1.19989e-06
1.19979e-06
1.19822e-06
1.19813e-06
1.19809e-06
1.19818e-06
1.19969e-06
1.19989e-06
1.19979e-06
1.19775e-06
1.19511e-06
1.19511e-06
1.19511e-06
1.19511e-06
1.19779e-06
1.19841e-06
1.19822e-06
1.19511e-06
1.19511e-06
1.19511e-06
1.19511e-06
1.19511e-06
1.19511e-06
1.1983e-06
1.19995e-06
1.20002e-06
1.19813e-06
1.19511e-06
1.19511e-06
1.19511e-06
1.19511e-06
1.19511e-06
1.19511e-06
1.19824e-06
1.19971e-06
1.19989e-06
1.19809e-06
1.19511e-06
1.19511e-06
1.19511e-06
1.19511e-06
1.19511e-06
1.19511e-06
1.1982e-06
1.19853e-06
1.19818e-06
1.19511e-06
1.19511e-06
1.19511e-06
1.19511e-06
1.19511e-06
1.19511e-06
1.19827e-06
1.19987e-06
1.19969e-06
1.19779e-06
1.19511e-06
1.19511e-06
1.19511e-06
1.19511e-06
1.19784e-06
1.19839e-06
1.19998e-06
1.19989e-06
1.19841e-06
1.19829e-06
1.19824e-06
1.19821e-06
1.19827e-06
1.19839e-06
1.19975e-06
1.19995e-06
1.1997e-06
1.19853e-06
1.19987e-06
1.19998e-06
1.18427e-06
1.18414e-06
1.18403e-06
1.18246e-06
1.18237e-06
1.18233e-06
1.18243e-06
1.18394e-06
1.18413e-06
1.18403e-06
1.182e-06
1.17935e-06
1.17935e-06
1.17935e-06
1.17935e-06
1.18203e-06
1.18266e-06
1.18246e-06
1.17935e-06
1.17935e-06
1.17935e-06
1.17935e-06
1.17935e-06
1.17935e-06
1.18254e-06
1.1842e-06
1.18427e-06
1.18237e-06
1.17935e-06
1.17935e-06
1.17935e-06
1.17935e-06
1.17935e-06
1.17935e-06
1.18248e-06
1.18395e-06
1.18414e-06
1.18233e-06
1.17935e-06
1.17935e-06
1.17935e-06
1.17935e-06
1.17935e-06
1.17935e-06
1.18245e-06
1.18278e-06
1.18243e-06
1.17935e-06
1.17935e-06
1.17935e-06
1.17935e-06
1.17935e-06
1.17935e-06
1.18251e-06
1.18412e-06
1.18394e-06
1.18203e-06
1.17935e-06
1.17935e-06
1.17935e-06
1.17935e-06
1.18208e-06
1.18264e-06
1.18423e-06
1.18413e-06
1.18266e-06
1.18254e-06
1.18248e-06
1.18245e-06
1.18251e-06
1.18264e-06
1.184e-06
1.1842e-06
1.18395e-06
1.18278e-06
1.18412e-06
1.18423e-06
1.16851e-06
1.16838e-06
1.16828e-06
1.16671e-06
1.16662e-06
1.16657e-06
1.16667e-06
1.16818e-06
1.16838e-06
1.16828e-06
1.16624e-06
1.16359e-06
1.16359e-06
1.16359e-06
1.16359e-06
1.16628e-06
1.1669e-06
1.16671e-06
1.16359e-06
1.16359e-06
1.16359e-06
1.16359e-06
1.16359e-06
1.16359e-06
1.16678e-06
1.16844e-06
1.16851e-06
1.16662e-06
1.16359e-06
1.16359e-06
1.16359e-06
1.16359e-06
1.16359e-06
1.16359e-06
1.16673e-06
1.16819e-06
1.16838e-06
1.16657e-06
1.16359e-06
1.16359e-06
1.16359e-06
1.16359e-06
1.16359e-06
1.16359e-06
1.16669e-06
1.16702e-06
1.16667e-06
1.16359e-06
1.16359e-06
1.16359e-06
1.16359e-06
1.16359e-06
1.16359e-06
1.16676e-06
1.16836e-06
1.16818e-06
1.16628e-06
1.16359e-06
1.16359e-06
1.16359e-06
1.16359e-06
1.16633e-06
1.16688e-06
1.16847e-06
1.16838e-06
1.1669e-06
1.16678e-06
1.16673e-06
1.16669e-06
1.16676e-06
1.16688e-06
1.16824e-06
1.16844e-06
1.1682e-06
1.16702e-06
1.16836e-06
1.16847e-06
1.15276e-06
1.15263e-06
1.15252e-06
1.15095e-06
1.15086e-06
1.15082e-06
1.15092e-06
1.15242e-06
1.15262e-06
1.15252e-06
1.15048e-06
1.14784e-06
1.14784e-06
1.14784e-06
1.14784e-06
1.15052e-06
1.15114e-06
1.15095e-06
1.14784e-06
1.14784e-06
1.14784e-06
1.14784e-06
1.14784e-06
1.14784e-06
1.15103e-06
1.15269e-06
1.15276e-06
1.15086e-06
1.14784e-06
1.14784e-06
1.14784e-06
1.14784e-06
1.14784e-06
1.14784e-06
1.15097e-06
1.15244e-06
1.15263e-06
1.15082e-06
1.14784e-06
1.14784e-06
1.14784e-06
1.14784e-06
1.14784e-06
1.14784e-06
1.15094e-06
1.15127e-06
1.15092e-06
1.14784e-06
1.14784e-06
1.14784e-06
1.14784e-06
1.14784e-06
1.14784e-06
1.151e-06
1.15261e-06
1.15242e-06
1.15052e-06
1.14784e-06
1.14784e-06
1.14784e-06
1.14784e-06
1.15057e-06
1.15112e-06
1.15272e-06
1.15262e-06
1.15115e-06
1.15103e-06
1.15097e-06
1.15094e-06
1.151e-06
1.15112e-06
1.15248e-06
1.15269e-06
1.15244e-06
1.15126e-06
1.15261e-06
1.15272e-06
1.137e-06
1.13687e-06
1.13677e-06
1.1352e-06
1.13511e-06
1.13506e-06
1.13516e-06
1.13667e-06
1.13687e-06
1.13677e-06
1.13473e-06
1.13208e-06
1.13208e-06
1.13208e-06
1.13208e-06
1.13477e-06
1.13539e-06
1.1352e-06
1.13208e-06
1.13208e-06
1.13208e-06
1.13208e-06
1.13208e-06
1.13208e-06
1.13527e-06
1.13693e-06
1.137e-06
1.13511e-06
1.13208e-06
1.13208e-06
1.13208e-06
1.13208e-06
1.13208e-06
1.13208e-06
1.13521e-06
1.13668e-06
1.13687e-06
1.13506e-06
1.13208e-06
1.13208e-06
1.13208e-06
1.13208e-06
1.13208e-06
1.13208e-06
1.13518e-06
1.13551e-06
1.13516e-06
1.13208e-06
1.13208e-06
1.13208e-06
1.13208e-06
1.13208e-06
1.13208e-06
1.13525e-06
1.13685e-06
1.13667e-06
1.13477e-06
1.13208e-06
1.13208e-06
1.13208e-06
1.13208e-06
1.13482e-06
1.13537e-06
1.13696e-06
1.13687e-06
1.13539e-06
1.13527e-06
1.13521e-06
1.13518e-06
1.13525e-06
1.13537e-06
1.13673e-06
1.13693e-06
1.13668e-06
1.13551e-06
1.13685e-06
1.13696e-06
1.12125e-06
1.12111e-06
1.12101e-06
1.11944e-06
1.11935e-06
1.11931e-06
1.11941e-06
1.12091e-06
1.12111e-06
1.12101e-06
1.11897e-06
1.11633e-06
1.11633e-06
1.11633e-06
1.11633e-06
1.11901e-06
1.11963e-06
1.11944e-06
1.11633e-06
1.11633e-06
1.11633e-06
1.11633e-06
1.11633e-06
1.11633e-06
1.11952e-06
1.12118e-06
1.12125e-06
1.11935e-06
1.11633e-06
1.11633e-06
1.11633e-06
1.11633e-06
1.11633e-06
1.11633e-06
1.11946e-06
1.12093e-06
1.12112e-06
1.11931e-06
1.11633e-06
1.11633e-06
1.11633e-06
1.11633e-06
1.11633e-06
1.11633e-06
1.11943e-06
1.11976e-06
1.11941e-06
1.11633e-06
1.11633e-06
1.11633e-06
1.11633e-06
1.11633e-06
1.11633e-06
1.11949e-06
1.12109e-06
1.12091e-06
1.11901e-06
1.11633e-06
1.11633e-06
1.11633e-06
1.11633e-06
1.11906e-06
1.11961e-06
1.12121e-06
1.12111e-06
1.11963e-06
1.11952e-06
1.11946e-06
1.11943e-06
1.11949e-06
1.11961e-06
1.12097e-06
1.12118e-06
1.12093e-06
1.11976e-06
1.1211e-06
1.12121e-06
1.10549e-06
1.10536e-06
1.10526e-06
1.10369e-06
1.10359e-06
1.10355e-06
1.10365e-06
1.10516e-06
1.10536e-06
1.10526e-06
1.10322e-06
1.10057e-06
1.10057e-06
1.10057e-06
1.10057e-06
1.10325e-06
1.10388e-06
1.10369e-06
1.10057e-06
1.10057e-06
1.10057e-06
1.10057e-06
1.10057e-06
1.10057e-06
1.10376e-06
1.10542e-06
1.10549e-06
1.10359e-06
1.10057e-06
1.10057e-06
1.10057e-06
1.10057e-06
1.10057e-06
1.10057e-06
1.1037e-06
1.10517e-06
1.10536e-06
1.10355e-06
1.10057e-06
1.10057e-06
1.10057e-06
1.10057e-06
1.10057e-06
1.10057e-06
1.10367e-06
1.104e-06
1.10365e-06
1.10057e-06
1.10057e-06
1.10057e-06
1.10057e-06
1.10057e-06
1.10057e-06
1.10373e-06
1.10534e-06
1.10516e-06
1.10325e-06
1.10057e-06
1.10057e-06
1.10057e-06
1.10057e-06
1.10331e-06
1.10386e-06
1.10545e-06
1.10536e-06
1.10388e-06
1.10376e-06
1.1037e-06
1.10367e-06
1.10374e-06
1.10386e-06
1.10522e-06
1.10542e-06
1.10517e-06
1.104e-06
1.10534e-06
1.10545e-06
1.08973e-06
1.0896e-06
1.0895e-06
1.08793e-06
1.08784e-06
1.0878e-06
1.08789e-06
1.0894e-06
1.0896e-06
1.0895e-06
1.08746e-06
1.08482e-06
1.08482e-06
1.08482e-06
1.08482e-06
1.0875e-06
1.08812e-06
1.08793e-06
1.08482e-06
1.08482e-06
1.08482e-06
1.08482e-06
1.08482e-06
1.08482e-06
1.08801e-06
1.08966e-06
1.08973e-06
1.08784e-06
1.08482e-06
1.08482e-06
1.08482e-06
1.08482e-06
1.08482e-06
1.08482e-06
1.08795e-06
1.08942e-06
1.0896e-06
1.0878e-06
1.08482e-06
1.08482e-06
1.08482e-06
1.08482e-06
1.08482e-06
1.08482e-06
1.08791e-06
1.08824e-06
1.08789e-06
1.08482e-06
1.08482e-06
1.08482e-06
1.08482e-06
1.08482e-06
1.08482e-06
1.08798e-06
1.08958e-06
1.0894e-06
1.0875e-06
1.08482e-06
1.08482e-06
1.08482e-06
1.08482e-06
1.08755e-06
1.0881e-06
1.08969e-06
1.0896e-06
1.08812e-06
1.08801e-06
1.08795e-06
1.08791e-06
1.08798e-06
1.0881e-06
1.08946e-06
1.08966e-06
1.08942e-06
1.08824e-06
1.08958e-06
1.08969e-06
1.07398e-06
1.07385e-06
1.07374e-06
1.07217e-06
1.07208e-06
1.07204e-06
1.07214e-06
1.07364e-06
1.07384e-06
1.07374e-06
1.0717e-06
1.06906e-06
1.06906e-06
1.06906e-06
1.06906e-06
1.07174e-06
1.07237e-06
1.07217e-06
1.06906e-06
1.06906e-06
1.06906e-06
1.06906e-06
1.06906e-06
1.06906e-06
1.07225e-06
1.07391e-06
1.07398e-06
1.07208e-06
1.06906e-06
1.06906e-06
1.06906e-06
1.06906e-06
1.06906e-06
1.06906e-06
1.07219e-06
1.07366e-06
1.07385e-06
1.07204e-06
1.06906e-06
1.06906e-06
1.06906e-06
1.06906e-06
1.06906e-06
1.06906e-06
1.07216e-06
1.07249e-06
1.07214e-06
1.06906e-06
1.06906e-06
1.06906e-06
1.06906e-06
1.06906e-06
1.06906e-06
1.07222e-06
1.07383e-06
1.07365e-06
1.07174e-06
1.06906e-06
1.06906e-06
1.06906e-06
1.06906e-06
1.07179e-06
1.07234e-06
1.07394e-06
1.07384e-06
1.07237e-06
1.07225e-06
1.07219e-06
1.07216e-06
1.07222e-06
1.07234e-06
1.07371e-06
1.07391e-06
1.07366e-06
1.07249e-06
1.07383e-06
1.07394e-06
1.05822e-06
1.05809e-06
1.05799e-06
1.05642e-06
1.05633e-06
1.05628e-06
1.05638e-06
1.05789e-06
1.05809e-06
1.05799e-06
1.05595e-06
1.0533e-06
1.0533e-06
1.0533e-06
1.0533e-06
1.05599e-06
1.05661e-06
1.05642e-06
1.0533e-06
1.0533e-06
1.0533e-06
1.0533e-06
1.0533e-06
1.0533e-06
1.05649e-06
1.05815e-06
1.05822e-06
1.05633e-06
1.0533e-06
1.0533e-06
1.0533e-06
1.0533e-06
1.0533e-06
1.0533e-06
1.05643e-06
1.0579e-06
1.05809e-06
1.05628e-06
1.0533e-06
1.0533e-06
1.0533e-06
1.0533e-06
1.0533e-06
1.0533e-06
1.0564e-06
1.05673e-06
1.05638e-06
1.0533e-06
1.0533e-06
1.0533e-06
1.0533e-06
1.0533e-06
1.0533e-06
1.05647e-06
1.05807e-06
1.05789e-06
1.05599e-06
1.0533e-06
1.0533e-06
1.0533e-06
1.0533e-06
1.05604e-06
1.05659e-06
1.05818e-06
1.05809e-06
1.05661e-06
1.05649e-06
1.05643e-06
1.0564e-06
1.05647e-06
1.05659e-06
1.05795e-06
1.05815e-06
1.0579e-06
1.05673e-06
1.05807e-06
1.05818e-06
1.04246e-06
1.04233e-06
1.04223e-06
1.04066e-06
1.04057e-06
1.04053e-06
1.04062e-06
1.04213e-06
1.04233e-06
1.04223e-06
1.04019e-06
1.03755e-06
1.03755e-06
1.03755e-06
1.03755e-06
1.04023e-06
1.04085e-06
1.04066e-06
1.03755e-06
1.03755e-06
1.03755e-06
1.03755e-06
1.03755e-06
1.03755e-06
1.04074e-06
1.0424e-06
1.04246e-06
1.04057e-06
1.03755e-06
1.03755e-06
1.03755e-06
1.03755e-06
1.03755e-06
1.03755e-06
1.04068e-06
1.04215e-06
1.04233e-06
1.04053e-06
1.03755e-06
1.03755e-06
1.03755e-06
1.03755e-06
1.03755e-06
1.03755e-06
1.04065e-06
1.04097e-06
1.04063e-06
1.03755e-06
1.03755e-06
1.03755e-06
1.03755e-06
1.03755e-06
1.03755e-06
1.04071e-06
1.04231e-06
1.04213e-06
1.04023e-06
1.03755e-06
1.03755e-06
1.03755e-06
1.03755e-06
1.04028e-06
1.04083e-06
1.04242e-06
1.04233e-06
1.04085e-06
1.04074e-06
1.04068e-06
1.04065e-06
1.04071e-06
1.04083e-06
1.04219e-06
1.0424e-06
1.04215e-06
1.04097e-06
1.04231e-06
1.04242e-06
1.02671e-06
1.02658e-06
1.02648e-06
1.02491e-06
1.02481e-06
1.02477e-06
1.02487e-06
1.02638e-06
1.02657e-06
1.02648e-06
1.02444e-06
1.02179e-06
1.02179e-06
1.02179e-06
1.02179e-06
1.02447e-06
1.0251e-06
1.02491e-06
1.02179e-06
1.02179e-06
1.02179e-06
1.02179e-06
1.02179e-06
1.02179e-06
1.02498e-06
1.02664e-06
1.02671e-06
1.02481e-06
1.02179e-06
1.02179e-06
1.02179e-06
1.02179e-06
1.02179e-06
1.02179e-06
1.02492e-06
1.02639e-06
1.02658e-06
1.02477e-06
1.02179e-06
1.02179e-06
1.02179e-06
1.02179e-06
1.02179e-06
1.02179e-06
1.02489e-06
1.02522e-06
1.02487e-06
1.02179e-06
1.02179e-06
1.02179e-06
1.02179e-06
1.02179e-06
1.02179e-06
1.02495e-06
1.02656e-06
1.02638e-06
1.02447e-06
1.02179e-06
1.02179e-06
1.02179e-06
1.02179e-06
1.02453e-06
1.02508e-06
1.02667e-06
1.02657e-06
1.0251e-06
1.02498e-06
1.02492e-06
1.02489e-06
1.02495e-06
1.02508e-06
1.02644e-06
1.02664e-06
1.02639e-06
1.02522e-06
1.02656e-06
1.02667e-06
1.01095e-06
1.01082e-06
1.01072e-06
1.00915e-06
1.00906e-06
1.00902e-06
1.00911e-06
1.01062e-06
1.01082e-06
1.01072e-06
1.00868e-06
1.00604e-06
1.00604e-06
1.00604e-06
1.00604e-06
1.00872e-06
1.00934e-06
1.00915e-06
1.00604e-06
1.00604e-06
1.00604e-06
1.00604e-06
1.00604e-06
1.00604e-06
1.00922e-06
1.01088e-06
1.01095e-06
1.00906e-06
1.00604e-06
1.00604e-06
1.00604e-06
1.00604e-06
1.00604e-06
1.00604e-06
1.00917e-06
1.01064e-06
1.01082e-06
1.00902e-06
1.00604e-06
1.00604e-06
1.00604e-06
1.00604e-06
1.00604e-06
1.00604e-06
1.00913e-06
1.00946e-06
1.00911e-06
1.00604e-06
1.00604e-06
1.00604e-06
1.00604e-06
1.00604e-06
1.00604e-06
1.0092e-06
1.0108e-06
1.01062e-06
1.00872e-06
1.00604e-06
1.00604e-06
1.00604e-06
1.00604e-06
1.00877e-06
1.00932e-06
1.01091e-06
1.01082e-06