/*--------------------------------*- C++ -*----------------------------------*\
| =========                 |                                                 |
| \\      /  F ield         | OpenFOAM: The Open Source CFD Toolbox           |
|  \\    /   O peration     | Version:  v2012                                 |
|   \\  /    A nd           | Website:  www.openfoam.com                      |
|    \\/     M anipulation  |                                                 |
\*---------------------------------------------------------------------------*/
FoamFile
{
    version     2.0;
    format      ascii;
    class       volScalarField;
    location    "0.01";
    object      p;
}
// * * * * * * * * * * * * * * * * * * * * * * * * * * * * * * * * * * * * * //

dimensions      [0 2 -2 0 0 0 0];


internalField   nonuniform List<scalar> 
244288
(
2.66087e-06
2.60261e-06
2.60816e-06
2.62865e-06
2.64056e-06
2.62579e-06
2.60702e-06
2.60261e-06
2.6057e-06
2.61192e-06
2.62104e-06
2.62561e-06
2.62005e-06
2.61121e-06
2.60555e-06
2.60814e-06
2.61192e-06
2.61483e-06
2.618e-06
2.61947e-06
2.61778e-06
2.61474e-06
2.612e-06
2.60808e-06
2.62865e-06
2.62105e-06
2.618e-06
2.61742e-06
2.61755e-06
2.61758e-06
2.61851e-06
2.62216e-06
2.6306e-06
2.66086e-06
2.64061e-06
2.62564e-06
2.61949e-06
2.61756e-06
2.61724e-06
2.61784e-06
2.62024e-06
2.62733e-06
2.64384e-06
2.62588e-06
2.62011e-06
2.61782e-06
2.6176e-06
2.61785e-06
2.61775e-06
2.61825e-06
2.621e-06
2.62736e-06
2.60712e-06
2.61127e-06
2.61478e-06
2.61854e-06
2.62027e-06
2.61828e-06
2.6146e-06
2.61119e-06
2.60691e-06
2.60559e-06
2.61202e-06
2.62218e-06
2.62738e-06
2.62107e-06
2.61124e-06
2.60539e-06
2.60808e-06
2.63061e-06
2.6439e-06
2.62748e-06
2.60703e-06
2.56643e-06
2.57995e-06
2.49438e-06
2.54935e-06
2.55806e-06
2.567e-06
2.54996e-06
2.52e-06
2.50707e-06
2.49496e-06
2.53919e-06
2.54498e-06
2.54755e-06
2.54758e-06
2.54505e-06
2.54469e-06
2.54344e-06
2.54989e-06
2.54513e-06
2.54706e-06
2.54836e-06
2.54838e-06
2.54707e-06
2.54511e-06
2.54927e-06
2.5188e-06
2.56793e-06
2.5584e-06
2.54771e-06
2.54843e-06
2.54907e-06
2.54907e-06
2.54841e-06
2.54763e-06
2.55749e-06
2.56271e-06
2.57981e-06
2.56691e-06
2.54769e-06
2.54848e-06
2.54913e-06
2.54912e-06
2.54845e-06
2.54766e-06
2.56218e-06
2.57345e-06
2.54976e-06
2.54514e-06
2.54723e-06
2.54856e-06
2.54854e-06
2.5472e-06
2.54516e-06
2.5523e-06
2.54641e-06
2.51975e-06
2.54482e-06
2.5454e-06
2.54791e-06
2.54785e-06
2.54529e-06
2.54749e-06
2.5421e-06
2.51257e-06
2.50708e-06
2.54368e-06
2.54977e-06
2.55791e-06
2.56239e-06
2.55256e-06
2.54399e-06
2.53807e-06
2.51982e-06
2.56379e-06
2.57357e-06
2.5459e-06
2.51251e-06
2.52482e-06
2.51402e-06
2.51164e-06
2.52314e-06
2.52499e-06
2.52601e-06
2.52395e-06
2.52663e-06
2.51477e-06
2.51234e-06
2.52251e-06
2.52241e-06
2.51748e-06
2.5178e-06
2.52373e-06
2.53005e-06
2.52851e-06
2.52371e-06
2.52371e-06
2.52094e-06
2.51907e-06
2.51921e-06
2.52136e-06
2.52412e-06
2.5323e-06
2.52859e-06
2.52668e-06
2.52568e-06
2.51813e-06
2.5193e-06
2.51907e-06
2.51907e-06
2.5192e-06
2.51767e-06
2.52888e-06
2.5287e-06
2.51279e-06
2.52636e-06
2.51831e-06
2.51952e-06
2.51922e-06
2.51915e-06
2.51917e-06
2.51731e-06
2.52746e-06
2.52951e-06
2.52405e-06
2.52458e-06
2.5217e-06
2.51953e-06
2.51954e-06
2.52148e-06
2.52235e-06
2.53045e-06
2.52775e-06
2.52667e-06
2.5303e-06
2.52404e-06
2.51814e-06
2.51848e-06
2.52568e-06
2.53261e-06
2.52953e-06
2.52335e-06
2.51481e-06
2.52866e-06
2.53254e-06
2.52933e-06
2.528e-06
2.5312e-06
2.52958e-06
2.55924e-06
2.52922e-06
2.52936e-06
2.52986e-06
2.52783e-06
2.52306e-06
2.49445e-06
2.4826e-06
2.47992e-06
2.48671e-06
2.49073e-06
2.49265e-06
2.48916e-06
2.49413e-06
2.48314e-06
2.47926e-06
2.48516e-06
2.48177e-06
2.48198e-06
2.48181e-06
2.48114e-06
2.50107e-06
2.49494e-06
2.4868e-06
2.48188e-06
2.48236e-06
2.4825e-06
2.48234e-06
2.48182e-06
2.48082e-06
2.50623e-06
2.49635e-06
2.49404e-06
2.49076e-06
2.48208e-06
2.48254e-06
2.4827e-06
2.48258e-06
2.48215e-06
2.48144e-06
2.50089e-06
2.49681e-06
2.48257e-06
2.4926e-06
2.48189e-06
2.48238e-06
2.48259e-06
2.4825e-06
2.4821e-06
2.48142e-06
2.4987e-06
2.49699e-06
2.48911e-06
2.4812e-06
2.48185e-06
2.48217e-06
2.4821e-06
2.48164e-06
2.4808e-06
2.50336e-06
2.4963e-06
2.49396e-06
2.50097e-06
2.4808e-06
2.48143e-06
2.48142e-06
2.48072e-06
2.5072e-06
2.501e-06
2.49088e-06
2.4832e-06
2.49469e-06
2.50617e-06
2.50078e-06
2.4986e-06
2.50322e-06
2.5012e-06
2.5208e-06
2.49594e-06
2.49652e-06
2.49671e-06
2.49605e-06
2.49038e-06
2.46312e-06
2.45093e-06
2.45448e-06
2.45803e-06
2.46183e-06
2.46402e-06
2.46133e-06
2.46827e-06
2.46015e-06
2.45435e-06
2.45875e-06
2.45676e-06
2.45671e-06
2.45667e-06
2.45664e-06
2.48319e-06
2.47066e-06
2.45803e-06
2.45677e-06
2.45672e-06
2.45667e-06
2.45662e-06
2.45655e-06
2.45644e-06
2.48771e-06
2.46876e-06
2.46334e-06
2.46189e-06
2.45674e-06
2.45668e-06
2.45664e-06
2.45659e-06
2.45654e-06
2.45651e-06
2.48023e-06
2.46744e-06
2.45164e-06
2.46408e-06
2.45672e-06
2.45664e-06
2.4566e-06
2.45656e-06
2.45652e-06
2.45653e-06
2.47709e-06
2.46763e-06
2.46142e-06
2.45669e-06
2.45658e-06
2.45655e-06
2.45652e-06
2.45648e-06
2.4565e-06
2.48369e-06
2.46726e-06
2.46847e-06
2.48304e-06
2.45647e-06
2.45652e-06
2.4565e-06
2.45643e-06
2.4962e-06
2.48061e-06
2.46441e-06
2.46031e-06
2.47055e-06
2.4876e-06
2.48026e-06
2.47709e-06
2.4838e-06
2.48145e-06
2.49666e-06
2.46912e-06
2.46751e-06
2.46733e-06
2.46699e-06
2.46408e-06
2.43519e-06
2.42288e-06
2.42682e-06
2.42946e-06
2.43422e-06
2.4365e-06
2.43359e-06
2.44063e-06
2.43236e-06
2.42692e-06
2.43037e-06
2.43072e-06
2.43073e-06
2.43074e-06
2.43075e-06
2.45837e-06
2.44259e-06
2.42994e-06
2.43071e-06
2.4307e-06
2.43069e-06
2.43069e-06
2.43069e-06
2.43067e-06
2.4629e-06
2.44098e-06
2.43415e-06
2.43384e-06
2.43065e-06
2.43067e-06
2.43067e-06
2.43066e-06
2.43067e-06
2.43069e-06
2.4557e-06
2.43969e-06
2.4222e-06
2.43653e-06
2.43075e-06
2.43069e-06
2.43066e-06
2.43065e-06
2.43066e-06
2.43069e-06
2.45223e-06
2.43968e-06
2.43541e-06
2.43084e-06
2.43071e-06
2.43066e-06
2.43064e-06
2.43064e-06
2.4307e-06
2.45928e-06
2.43942e-06
2.44086e-06
2.45874e-06
2.43066e-06
2.43065e-06
2.43062e-06
2.43059e-06
2.47535e-06
2.45496e-06
2.43659e-06
2.43231e-06
2.44254e-06
2.46275e-06
2.45563e-06
2.45217e-06
2.45924e-06
2.4555e-06
2.46857e-06
2.44113e-06
2.4396e-06
2.43966e-06
2.43945e-06
2.43643e-06
2.40828e-06
2.39599e-06
2.39985e-06
2.40293e-06
2.40748e-06
2.40979e-06
2.40688e-06
2.4136e-06
2.40552e-06
2.39998e-06
2.40331e-06
2.40442e-06
2.4044e-06
2.40439e-06
2.40438e-06
2.43197e-06
2.41546e-06
2.40308e-06
2.40437e-06
2.40438e-06
2.40437e-06
2.40437e-06
2.40438e-06
2.40441e-06
2.43685e-06
2.41423e-06
2.40614e-06
2.4069e-06
2.40438e-06
2.40437e-06
2.40436e-06
2.40436e-06
2.40437e-06
2.4044e-06
2.4297e-06
2.41302e-06
2.39505e-06
2.40997e-06
2.40443e-06
2.40438e-06
2.40436e-06
2.40435e-06
2.40436e-06
2.40438e-06
2.42629e-06
2.41297e-06
2.40852e-06
2.40439e-06
2.40436e-06
2.40435e-06
2.40435e-06
2.40435e-06
2.40435e-06
2.4333e-06
2.4127e-06
2.41377e-06
2.43278e-06
2.40436e-06
2.40435e-06
2.40435e-06
2.40435e-06
2.45058e-06
2.42843e-06
2.40988e-06
2.40533e-06
2.41545e-06
2.43686e-06
2.42958e-06
2.42624e-06
2.43347e-06
2.4297e-06
2.44265e-06
2.41422e-06
2.41275e-06
2.4129e-06
2.41266e-06
2.40957e-06
2.38153e-06
2.3693e-06
2.37347e-06
2.37616e-06
2.38071e-06
2.38309e-06
2.38028e-06
2.38697e-06
2.37887e-06
2.37326e-06
2.37673e-06
2.37775e-06
2.37776e-06
2.37776e-06
2.37776e-06
2.40615e-06
2.38884e-06
2.3765e-06
2.3778e-06
2.37776e-06
2.37775e-06
2.37775e-06
2.37774e-06
2.3777e-06
2.41015e-06
2.3875e-06
2.38143e-06
2.38068e-06
2.37779e-06
2.37776e-06
2.37775e-06
2.37775e-06
2.37774e-06
2.37774e-06
2.40314e-06
2.38637e-06
2.36944e-06
2.38298e-06
2.37779e-06
2.37776e-06
2.37775e-06
2.37775e-06
2.37775e-06
2.37776e-06
2.39971e-06
2.38631e-06
2.38035e-06
2.37777e-06
2.37776e-06
2.37775e-06
2.37775e-06
2.37775e-06
2.37778e-06
2.40672e-06
2.38601e-06
2.38708e-06
2.4063e-06
2.37775e-06
2.37776e-06
2.37775e-06
2.37773e-06
2.42435e-06
2.40197e-06
2.38316e-06
2.37877e-06
2.3887e-06
2.41027e-06
2.40316e-06
2.39974e-06
2.40692e-06
2.40292e-06
2.41555e-06
2.38746e-06
2.38598e-06
2.38599e-06
2.38597e-06
2.3829e-06
2.35476e-06
2.34251e-06
2.34669e-06
2.34925e-06
2.35395e-06
2.35631e-06
2.35351e-06
2.36013e-06
2.35195e-06
2.34669e-06
2.34998e-06
2.35102e-06
2.35102e-06
2.35102e-06
2.35102e-06
2.37942e-06
2.36178e-06
2.34992e-06
2.35102e-06
2.35101e-06
2.35101e-06
2.35101e-06
2.35101e-06
2.35102e-06
2.38362e-06
2.36064e-06
2.35533e-06
2.35367e-06
2.35098e-06
2.35098e-06
2.35099e-06
2.35101e-06
2.35101e-06
2.35101e-06
2.37646e-06
2.35953e-06
2.34191e-06
2.35615e-06
2.3509e-06
2.35095e-06
2.35098e-06
2.351e-06
2.35101e-06
2.351e-06
2.37298e-06
2.35948e-06
2.35301e-06
2.35093e-06
2.35095e-06
2.35097e-06
2.351e-06
2.35102e-06
2.35103e-06
2.38004e-06
2.35917e-06
2.36025e-06
2.37897e-06
2.35094e-06
2.35096e-06
2.351e-06
2.35102e-06
2.3981e-06
2.37507e-06
2.3563e-06
2.35194e-06
2.36193e-06
2.38355e-06
2.37641e-06
2.37299e-06
2.38029e-06
2.37628e-06
2.38857e-06
2.36082e-06
2.35944e-06
2.35934e-06
2.35927e-06
2.3561e-06
2.32783e-06
2.31559e-06
2.3198e-06
2.32236e-06
2.32704e-06
2.32943e-06
2.32664e-06
2.33326e-06
2.32507e-06
2.31964e-06
2.32291e-06
2.32423e-06
2.32421e-06
2.32419e-06
2.32419e-06
2.35257e-06
2.33492e-06
2.32192e-06
2.32426e-06
2.32424e-06
2.32421e-06
2.3242e-06
2.32419e-06
2.32418e-06
2.35681e-06
2.33377e-06
2.32973e-06
2.32777e-06
2.32426e-06
2.32424e-06
2.32421e-06
2.3242e-06
2.32419e-06
2.32419e-06
2.34963e-06
2.33264e-06
2.31429e-06
2.32934e-06
2.32415e-06
2.32418e-06
2.32419e-06
2.32419e-06
2.32419e-06
2.32419e-06
2.34621e-06
2.3326e-06
2.32559e-06
2.32405e-06
2.32414e-06
2.32417e-06
2.32418e-06
2.32418e-06
2.32418e-06
2.35329e-06
2.33233e-06
2.33307e-06
2.35193e-06
2.32415e-06
2.32416e-06
2.32417e-06
2.32418e-06
2.37131e-06
2.34821e-06
2.32941e-06
2.32511e-06
2.33512e-06
2.35672e-06
2.34983e-06
2.34623e-06
2.35347e-06
2.34943e-06
2.3617e-06
2.33397e-06
2.33255e-06
2.33262e-06
2.33242e-06
2.32923e-06
2.30111e-06
2.28889e-06
2.2927e-06
2.29564e-06
2.30034e-06
2.30266e-06
2.29985e-06
2.30645e-06
2.29825e-06
2.29287e-06
2.29615e-06
2.29743e-06
2.29743e-06
2.29743e-06
2.29743e-06
2.32579e-06
2.30813e-06
2.2958e-06
2.29743e-06
2.29744e-06
2.29744e-06
2.29744e-06
2.29743e-06
2.29742e-06
2.33002e-06
2.30696e-06
2.30153e-06
2.30014e-06
2.29742e-06
2.29744e-06
2.29744e-06
2.29744e-06
2.29744e-06
2.29742e-06
2.32286e-06
2.30585e-06
2.28839e-06
2.3025e-06
2.2974e-06
2.29743e-06
2.29744e-06
2.29744e-06
2.29743e-06
2.29742e-06
2.31942e-06
2.30579e-06
2.29932e-06
2.29742e-06
2.29743e-06
2.29743e-06
2.29743e-06
2.29742e-06
2.29741e-06
2.32649e-06
2.30549e-06
2.30641e-06
2.32547e-06
2.29742e-06
2.29743e-06
2.29742e-06
2.29739e-06
2.34451e-06
2.3214e-06
2.30254e-06
2.29832e-06
2.30821e-06
2.33002e-06
2.32289e-06
2.31941e-06
2.32662e-06
2.3226e-06
2.33486e-06
2.30718e-06
2.30571e-06
2.30567e-06
2.30555e-06
2.30236e-06
2.27439e-06
2.26213e-06
2.26605e-06
2.26901e-06
2.27371e-06
2.27602e-06
2.27322e-06
2.27981e-06
2.27161e-06
2.26627e-06
2.26952e-06
2.27083e-06
2.27083e-06
2.27083e-06
2.27083e-06
2.29917e-06
2.2815e-06
2.26899e-06
2.27082e-06
2.27083e-06
2.27084e-06
2.27084e-06
2.27083e-06
2.27082e-06
2.3034e-06
2.28031e-06
2.27429e-06
2.27372e-06
2.27084e-06
2.27084e-06
2.27084e-06
2.27084e-06
2.27084e-06
2.27083e-06
2.29622e-06
2.27918e-06
2.2622e-06
2.27605e-06
2.27085e-06
2.27085e-06
2.27085e-06
2.27084e-06
2.27084e-06
2.27083e-06
2.2928e-06
2.27918e-06
2.27325e-06
2.27085e-06
2.27084e-06
2.27084e-06
2.27084e-06
2.27084e-06
2.27083e-06
2.29988e-06
2.27887e-06
2.27983e-06
2.29875e-06
2.27084e-06
2.27083e-06
2.27083e-06
2.27083e-06
2.31781e-06
2.2948e-06
2.27593e-06
2.27176e-06
2.28171e-06
2.30348e-06
2.29628e-06
2.29284e-06
2.30019e-06
2.29609e-06
2.30827e-06
2.28059e-06
2.27911e-06
2.27914e-06
2.27891e-06
2.27574e-06
2.24794e-06
2.2357e-06
2.23964e-06
2.24254e-06
2.24726e-06
2.24956e-06
2.24675e-06
2.25332e-06
2.24513e-06
2.23989e-06
2.24314e-06
2.24436e-06
2.24439e-06
2.2444e-06
2.24441e-06
2.27272e-06
2.25504e-06
2.24269e-06
2.24436e-06
2.24438e-06
2.2444e-06
2.24441e-06
2.24441e-06
2.24441e-06
2.27695e-06
2.25383e-06
2.24815e-06
2.24707e-06
2.2444e-06
2.2444e-06
2.24442e-06
2.24442e-06
2.24442e-06
2.24441e-06
2.26977e-06
2.2527e-06
2.23643e-06
2.24965e-06
2.24446e-06
2.24444e-06
2.24444e-06
2.24443e-06
2.24442e-06
2.24441e-06
2.26634e-06
2.25269e-06
2.24736e-06
2.24448e-06
2.24446e-06
2.24445e-06
2.24443e-06
2.24442e-06
2.2444e-06
2.27342e-06
2.25239e-06
2.25337e-06
2.27263e-06
2.24445e-06
2.24444e-06
2.24442e-06
2.24441e-06
2.2915e-06
2.26834e-06
2.24945e-06
2.24528e-06
2.25515e-06
2.27697e-06
2.26984e-06
2.26639e-06
2.27372e-06
2.26957e-06
2.28177e-06
2.25404e-06
2.25259e-06
2.25268e-06
2.25239e-06
2.24922e-06
2.2216e-06
2.20935e-06
2.21351e-06
2.21603e-06
2.22093e-06
2.22327e-06
2.22048e-06
2.22704e-06
2.21884e-06
2.21337e-06
2.21667e-06
2.21812e-06
2.21815e-06
2.21816e-06
2.21816e-06
2.24646e-06
2.22877e-06
2.21632e-06
2.21813e-06
2.21815e-06
2.21817e-06
2.21817e-06
2.21817e-06
2.21816e-06
2.25069e-06
2.22755e-06
2.21979e-06
2.22038e-06
2.21815e-06
2.21818e-06
2.21819e-06
2.21818e-06
2.21818e-06
2.21817e-06
2.24351e-06
2.22641e-06
2.20772e-06
2.22344e-06
2.21826e-06
2.21823e-06
2.21821e-06
2.21819e-06
2.21818e-06
2.21817e-06
2.24008e-06
2.22642e-06
2.22211e-06
2.21827e-06
2.21824e-06
2.21821e-06
2.21819e-06
2.21818e-06
2.21816e-06
2.24716e-06
2.2261e-06
2.2272e-06
2.24638e-06
2.21819e-06
2.21819e-06
2.21818e-06
2.21816e-06
2.26523e-06
2.24208e-06
2.22316e-06
2.21902e-06
2.22884e-06
2.25079e-06
2.24362e-06
2.24016e-06
2.24736e-06
2.24335e-06
2.2555e-06
2.22761e-06
2.22621e-06
2.22633e-06
2.22601e-06
2.22298e-06
2.19552e-06
2.18325e-06
2.18739e-06
2.19001e-06
2.19485e-06
2.19719e-06
2.19438e-06
2.20092e-06
2.1927e-06
2.18713e-06
2.19073e-06
2.19209e-06
2.1921e-06
2.19209e-06
2.19208e-06
2.22033e-06
2.20264e-06
2.1904e-06
2.19207e-06
2.19209e-06
2.1921e-06
2.1921e-06
2.19209e-06
2.19208e-06
2.22457e-06
2.20142e-06
2.19437e-06
2.19448e-06
2.19208e-06
2.1921e-06
2.1921e-06
2.1921e-06
2.19209e-06
2.19208e-06
2.2174e-06
2.20032e-06
2.18248e-06
2.19705e-06
2.19211e-06
2.19212e-06
2.19211e-06
2.1921e-06
2.1921e-06
2.19208e-06
2.21397e-06
2.2003e-06
2.19595e-06
2.19213e-06
2.19211e-06
2.19211e-06
2.19211e-06
2.1921e-06
2.19208e-06
2.22105e-06
2.19996e-06
2.201e-06
2.22042e-06
2.19209e-06
2.19209e-06
2.19211e-06
2.19213e-06
2.23916e-06
2.21597e-06
2.19702e-06
2.19261e-06
2.20265e-06
2.22441e-06
2.21746e-06
2.21404e-06
2.22129e-06
2.21728e-06
2.22939e-06
2.20152e-06
2.20016e-06
2.20032e-06
2.19998e-06
2.1969e-06
2.16957e-06
2.15738e-06
2.16145e-06
2.16404e-06
2.16888e-06
2.17121e-06
2.1684e-06
2.17494e-06
2.16673e-06
2.1615e-06
2.16465e-06
2.16614e-06
2.16612e-06
2.16611e-06
2.16611e-06
2.19436e-06
2.17668e-06
2.16463e-06
2.1661e-06
2.16611e-06
2.16611e-06
2.16611e-06
2.16611e-06
2.1661e-06
2.1986e-06
2.17545e-06
2.16929e-06
2.16879e-06
2.1661e-06
2.16611e-06
2.16611e-06
2.16611e-06
2.1661e-06
2.1661e-06
2.19143e-06
2.17434e-06
2.15688e-06
2.1712e-06
2.16612e-06
2.16611e-06
2.16611e-06
2.16611e-06
2.16611e-06
2.1661e-06
2.18801e-06
2.17435e-06
2.16861e-06
2.16613e-06
2.16612e-06
2.16611e-06
2.16611e-06
2.16611e-06
2.16611e-06
2.19511e-06
2.17401e-06
2.17505e-06
2.19415e-06
2.16613e-06
2.16611e-06
2.16611e-06
2.16611e-06
2.21314e-06
2.19007e-06
2.17109e-06
2.16664e-06
2.17669e-06
2.19845e-06
2.19144e-06
2.18799e-06
2.19544e-06
2.19138e-06
2.20344e-06
2.17548e-06
2.17405e-06
2.17425e-06
2.17414e-06
2.17096e-06
2.14355e-06
2.1313e-06
2.13546e-06
2.13807e-06
2.14287e-06
2.14523e-06
2.14239e-06
2.14895e-06
2.14074e-06
2.13548e-06
2.13875e-06
2.14009e-06
2.14009e-06
2.14009e-06
2.1401e-06
2.16836e-06
2.15068e-06
2.13866e-06
2.14011e-06
2.14009e-06
2.14009e-06
2.14009e-06
2.14009e-06
2.1401e-06
2.1726e-06
2.14945e-06
2.1438e-06
2.14283e-06
2.14008e-06
2.14008e-06
2.14008e-06
2.14009e-06
2.14009e-06
2.14009e-06
2.16544e-06
2.14834e-06
2.13219e-06
2.1451e-06
2.14007e-06
2.14007e-06
2.14008e-06
2.14008e-06
2.14009e-06
2.14009e-06
2.16201e-06
2.14835e-06
2.14237e-06
2.14007e-06
2.14006e-06
2.14007e-06
2.14008e-06
2.14008e-06
2.14008e-06
2.16913e-06
2.14803e-06
2.14904e-06
2.16802e-06
2.14005e-06
2.14006e-06
2.14009e-06
2.14009e-06
2.18691e-06
2.16409e-06
2.14511e-06
2.14073e-06
2.15089e-06
2.17274e-06
2.16544e-06
2.16192e-06
2.16962e-06
2.16507e-06
2.17752e-06
2.14986e-06
2.14838e-06
2.14832e-06
2.1481e-06
2.14483e-06
2.11751e-06
2.10528e-06
2.10943e-06
2.11204e-06
2.11684e-06
2.11921e-06
2.11637e-06
2.12293e-06
2.11472e-06
2.10939e-06
2.11271e-06
2.11404e-06
2.11404e-06
2.11404e-06
2.11404e-06
2.14232e-06
2.12464e-06
2.11237e-06
2.11404e-06
2.11403e-06
2.11403e-06
2.11403e-06
2.11403e-06
2.11403e-06
2.14655e-06
2.12342e-06
2.11766e-06
2.11693e-06
2.11403e-06
2.11402e-06
2.11402e-06
2.11403e-06
2.11404e-06
2.11404e-06
2.13943e-06
2.12236e-06
2.10536e-06
2.11922e-06
2.11402e-06
2.11401e-06
2.11402e-06
2.11404e-06
2.11405e-06
2.11405e-06
2.136e-06
2.12234e-06
2.11656e-06
2.11402e-06
2.11398e-06
2.114e-06
2.11405e-06
2.11408e-06
2.11404e-06
2.14308e-06
2.122e-06
2.123e-06
2.14215e-06
2.11391e-06
2.11397e-06
2.11411e-06
2.11418e-06
2.16134e-06
2.13792e-06
2.11903e-06
2.11477e-06
2.12484e-06
2.14655e-06
2.13914e-06
2.13608e-06
2.14407e-06
2.13918e-06
2.15173e-06
2.12335e-06
2.12208e-06
2.1223e-06
2.12295e-06
2.11912e-06
2.09146e-06
2.07924e-06
2.0833e-06
2.0859e-06
2.0907e-06
2.09304e-06
2.09023e-06
2.0968e-06
2.0886e-06
2.08323e-06
2.08655e-06
2.08787e-06
2.08787e-06
2.08786e-06
2.08787e-06
2.11617e-06
2.09849e-06
2.08621e-06
2.08788e-06
2.08787e-06
2.08787e-06
2.08786e-06
2.08787e-06
2.08787e-06
2.12035e-06
2.09728e-06
2.09114e-06
2.09078e-06
2.0879e-06
2.08789e-06
2.08787e-06
2.08787e-06
2.08787e-06
2.08787e-06
2.11327e-06
2.09624e-06
2.0795e-06
2.09308e-06
2.08791e-06
2.0879e-06
2.08788e-06
2.08788e-06
2.08788e-06
2.08788e-06
2.10978e-06
2.09623e-06
2.0902e-06
2.08791e-06
2.0879e-06
2.08789e-06
2.08789e-06
2.08789e-06
2.08789e-06
2.11684e-06
2.09585e-06
2.09692e-06
2.11577e-06
2.08791e-06
2.08786e-06
2.08787e-06
2.08788e-06
2.13486e-06
2.11199e-06
2.09302e-06
2.08861e-06
2.09861e-06
2.12063e-06
2.11309e-06
2.10985e-06
2.11763e-06
2.1131e-06
2.12548e-06
2.09721e-06
2.0957e-06
2.09629e-06
2.09684e-06
2.0932e-06
2.0651e-06
2.05284e-06
2.05702e-06
2.05959e-06
2.06439e-06
2.06675e-06
2.06391e-06
2.07051e-06
2.06231e-06
2.05701e-06
2.06028e-06
2.06156e-06
2.06156e-06
2.06155e-06
2.06155e-06
2.08986e-06
2.07218e-06
2.06018e-06
2.06156e-06
2.06155e-06
2.06155e-06
2.06155e-06
2.06155e-06
2.06155e-06
2.09406e-06
2.071e-06
2.06524e-06
2.0644e-06
2.06156e-06
2.06156e-06
2.06154e-06
2.06154e-06
2.06153e-06
2.06154e-06
2.08695e-06
2.06994e-06
2.05308e-06
2.06668e-06
2.06158e-06
2.06156e-06
2.06154e-06
2.06152e-06
2.06152e-06
2.06153e-06
2.08346e-06
2.0699e-06
2.06386e-06
2.06161e-06
2.06158e-06
2.06154e-06
2.06149e-06
2.06149e-06
2.06151e-06
2.09051e-06
2.06955e-06
2.07079e-06
2.08971e-06
2.06162e-06
2.06155e-06
2.06147e-06
2.06148e-06
2.10841e-06
2.08565e-06
2.06672e-06
2.06244e-06
2.07253e-06
2.09454e-06
2.08695e-06
2.0834e-06
2.0905e-06
2.08665e-06
2.09912e-06
2.07155e-06
2.0701e-06
2.06985e-06
2.06925e-06
2.06624e-06
2.03868e-06
2.02645e-06
2.0307e-06
2.03335e-06
2.03804e-06
2.04033e-06
2.03754e-06
2.04417e-06
2.03597e-06
2.0307e-06
2.03395e-06
2.03518e-06
2.03517e-06
2.03517e-06
2.03518e-06
2.06351e-06
2.04584e-06
2.03383e-06
2.03519e-06
2.03517e-06
2.03517e-06
2.03517e-06
2.03518e-06
2.03518e-06
2.06769e-06
2.04463e-06
2.03892e-06
2.03794e-06
2.03518e-06
2.03517e-06
2.03517e-06
2.03517e-06
2.03517e-06
2.03518e-06
2.06059e-06
2.04356e-06
2.02674e-06
2.04022e-06
2.03517e-06
2.03517e-06
2.03517e-06
2.03516e-06
2.03516e-06
2.03517e-06
2.05711e-06
2.04357e-06
2.03744e-06
2.03518e-06
2.03518e-06
2.03517e-06
2.03516e-06
2.03516e-06
2.03518e-06
2.06416e-06
2.04324e-06
2.04434e-06
2.06308e-06
2.03522e-06
2.03517e-06
2.03514e-06
2.03515e-06
2.08206e-06
2.0593e-06
2.0404e-06
2.036e-06
2.04605e-06
2.06788e-06
2.06073e-06
2.05705e-06
2.06408e-06
2.06023e-06
2.07277e-06
2.04522e-06
2.04412e-06
2.04329e-06
2.04268e-06
2.04009e-06
2.01219e-06
2.0001e-06
2.00425e-06
2.00696e-06
2.01152e-06
2.01392e-06
2.01122e-06
2.01769e-06
2.00951e-06
2.00422e-06
2.00751e-06
2.00873e-06
2.00874e-06
2.00874e-06
2.00875e-06
2.03706e-06
2.0194e-06
2.00726e-06
2.00872e-06
2.00872e-06
2.00873e-06
2.00874e-06
2.00875e-06
2.00876e-06
2.04128e-06
2.01823e-06
2.01236e-06
2.01156e-06
2.0087e-06
2.00872e-06
2.00873e-06
2.00874e-06
2.00876e-06
2.00877e-06
2.03416e-06
2.01712e-06
1.99998e-06
2.0138e-06
2.00868e-06
2.0087e-06
2.00872e-06
2.00875e-06
2.00877e-06
2.00878e-06
2.03072e-06
2.01717e-06
2.01104e-06
2.00865e-06
2.00866e-06
2.0087e-06
2.00876e-06
2.0088e-06
2.00881e-06
2.03788e-06
2.01688e-06
2.01759e-06
2.03649e-06
2.00862e-06
2.00867e-06
2.00878e-06
2.00884e-06
2.05577e-06
2.03293e-06
2.01397e-06
2.00934e-06
2.0193e-06
2.04108e-06
2.03384e-06
2.03064e-06
2.0386e-06
2.03407e-06
2.04644e-06
2.01799e-06
2.01678e-06
2.01699e-06
2.01752e-06
2.01424e-06
1.98578e-06
1.9735e-06
1.97776e-06
1.98052e-06
1.98522e-06
1.98752e-06
1.98475e-06
1.9912e-06
1.98303e-06
1.97768e-06
1.981e-06
1.98227e-06
1.98229e-06
1.98231e-06
1.98231e-06
2.01061e-06
1.99293e-06
1.98061e-06
1.98228e-06
1.98229e-06
1.9823e-06
1.98232e-06
1.98232e-06
1.98233e-06
2.01482e-06
1.99177e-06
1.9859e-06
1.98513e-06
1.98226e-06
1.98228e-06
1.9823e-06
1.98231e-06
1.98232e-06
1.98232e-06
2.00769e-06
1.99069e-06
1.9737e-06
1.9873e-06
1.98225e-06
1.98227e-06
1.98229e-06
1.98232e-06
1.98233e-06
1.98232e-06
2.00425e-06
1.99066e-06
1.98457e-06
1.98222e-06
1.98225e-06
1.98229e-06
1.98233e-06
1.98234e-06
1.98233e-06
2.0114e-06
1.99034e-06
1.99111e-06
2.01015e-06
1.98223e-06
1.98224e-06
1.9823e-06
1.98237e-06
2.02914e-06
2.00641e-06
1.98745e-06
1.98285e-06
1.99294e-06
2.01491e-06
2.00751e-06
2.00423e-06
2.01205e-06
2.00758e-06
2.01998e-06
1.99146e-06
1.98999e-06
1.99063e-06
1.99125e-06
1.98776e-06
1.95947e-06
1.94719e-06
1.95133e-06
1.95398e-06
1.95883e-06
1.96116e-06
1.95844e-06
1.96499e-06
1.95669e-06
1.95127e-06
1.95449e-06
1.95594e-06
1.95595e-06
1.95595e-06
1.95595e-06
1.98419e-06
1.96655e-06
1.95424e-06
1.95594e-06
1.95595e-06
1.95595e-06
1.95595e-06
1.95594e-06
1.95594e-06
1.98849e-06
1.9654e-06
1.95939e-06
1.95881e-06
1.95596e-06
1.95596e-06
1.95595e-06
1.95594e-06
1.95593e-06
1.95593e-06
1.98132e-06
1.9643e-06
1.94715e-06
1.96111e-06
1.95597e-06
1.95596e-06
1.95594e-06
1.95593e-06
1.95592e-06
1.95593e-06
1.97786e-06
1.9643e-06
1.9583e-06
1.95599e-06
1.95596e-06
1.95593e-06
1.9559e-06
1.95589e-06
1.95591e-06
1.98499e-06
1.96396e-06
1.96483e-06
1.98381e-06
1.95598e-06
1.95596e-06
1.95589e-06
1.95586e-06
2.00268e-06
1.97999e-06
1.96105e-06
1.9566e-06
1.96671e-06
1.98868e-06
1.98142e-06
1.97786e-06
1.98498e-06
1.98109e-06
1.99353e-06
1.96551e-06
1.96431e-06
1.9642e-06
1.96367e-06
1.96083e-06
1.93327e-06
1.92092e-06
1.92515e-06
1.92786e-06
1.93248e-06
1.93482e-06
1.93215e-06
1.93867e-06
1.93039e-06
1.92508e-06
1.92841e-06
1.92964e-06
1.92964e-06
1.92963e-06
1.92962e-06
1.95789e-06
1.94026e-06
1.92801e-06
1.92965e-06
1.92964e-06
1.92963e-06
1.92963e-06
1.92963e-06
1.92963e-06
1.96219e-06
1.9391e-06
1.93335e-06
1.93254e-06
1.92965e-06
1.92965e-06
1.92964e-06
1.92964e-06
1.92963e-06
1.92964e-06
1.95504e-06
1.93799e-06
1.92134e-06
1.93468e-06
1.92967e-06
1.92967e-06
1.92966e-06
1.92964e-06
1.92963e-06
1.92964e-06
1.95161e-06
1.93799e-06
1.93199e-06
1.92968e-06
1.92971e-06
1.9297e-06
1.92965e-06
1.92962e-06
1.92964e-06
1.95872e-06
1.9377e-06
1.93849e-06
1.95752e-06
1.9298e-06
1.92974e-06
1.92961e-06
1.92956e-06
1.97623e-06
1.95378e-06
1.93481e-06
1.93025e-06
1.94024e-06
1.96204e-06
1.95552e-06
1.95157e-06
1.95833e-06
1.95453e-06
1.96724e-06
1.93937e-06
1.93869e-06
1.93782e-06
1.93694e-06
1.93446e-06
1.90699e-06
1.89514e-06
1.8988e-06
1.90144e-06
1.90611e-06
1.90835e-06
1.90572e-06
1.91213e-06
1.904e-06
1.89871e-06
1.90202e-06
1.90327e-06
1.90326e-06
1.90325e-06
1.90325e-06
1.93155e-06
1.91392e-06
1.90165e-06
1.90323e-06
1.90325e-06
1.90325e-06
1.90325e-06
1.90324e-06
1.90325e-06
1.93583e-06
1.91275e-06
1.90694e-06
1.90615e-06
1.90325e-06
1.90325e-06
1.90325e-06
1.90325e-06
1.90325e-06
1.90325e-06
1.92866e-06
1.91164e-06
1.89456e-06
1.90845e-06
1.90326e-06
1.90325e-06
1.90325e-06
1.90325e-06
1.90325e-06
1.90325e-06
1.92524e-06
1.91161e-06
1.90576e-06
1.90326e-06
1.90326e-06
1.90325e-06
1.90325e-06
1.90325e-06
1.90325e-06
1.93237e-06
1.9113e-06
1.91219e-06
1.93114e-06
1.90325e-06
1.90325e-06
1.90324e-06
1.90328e-06
1.95013e-06
1.92735e-06
1.90841e-06
1.90396e-06
1.91405e-06
1.93573e-06
1.92864e-06
1.92513e-06
1.93223e-06
1.92835e-06
1.94083e-06
1.91309e-06
1.91152e-06
1.91115e-06
1.91094e-06
1.90812e-06
1.88054e-06
1.86822e-06
1.87234e-06
1.87502e-06
1.87967e-06
1.88205e-06
1.87922e-06
1.88582e-06
1.87762e-06
1.87232e-06
1.87547e-06
1.87683e-06
1.87685e-06
1.87685e-06
1.87686e-06
1.90518e-06
1.88751e-06
1.87539e-06
1.87687e-06
1.87685e-06
1.87685e-06
1.87685e-06
1.87685e-06
1.87686e-06
1.90942e-06
1.88632e-06
1.88039e-06
1.87969e-06
1.87687e-06
1.87685e-06
1.87685e-06
1.87685e-06
1.87685e-06
1.87686e-06
1.90225e-06
1.8852e-06
1.86806e-06
1.88199e-06
1.87685e-06
1.87685e-06
1.87685e-06
1.87685e-06
1.87685e-06
1.87686e-06
1.89884e-06
1.88521e-06
1.87918e-06
1.87683e-06
1.87684e-06
1.87684e-06
1.87683e-06
1.87683e-06
1.87685e-06
1.90595e-06
1.88492e-06
1.88586e-06
1.90472e-06
1.87684e-06
1.87684e-06
1.87682e-06
1.87677e-06
1.92363e-06
1.90102e-06
1.88203e-06
1.87755e-06
1.88766e-06
1.90932e-06
1.9023e-06
1.89874e-06
1.9059e-06
1.90186e-06
1.91446e-06
1.88647e-06
1.88506e-06
1.88512e-06
1.8849e-06
1.88184e-06
1.85395e-06
1.84173e-06
1.84588e-06
1.84838e-06
1.85324e-06
1.85565e-06
1.85287e-06
1.85944e-06
1.85124e-06
1.84581e-06
1.84906e-06
1.85055e-06
1.85053e-06
1.85053e-06
1.85054e-06
1.87883e-06
1.86115e-06
1.84906e-06
1.85056e-06
1.85054e-06
1.85054e-06
1.85054e-06
1.85054e-06
1.85053e-06
1.88306e-06
1.85994e-06
1.85384e-06
1.8531e-06
1.85053e-06
1.85052e-06
1.85053e-06
1.85053e-06
1.85054e-06
1.85054e-06
1.8759e-06
1.85883e-06
1.84223e-06
1.85572e-06
1.85048e-06
1.8505e-06
1.85052e-06
1.85053e-06
1.85053e-06
1.85053e-06
1.87247e-06
1.85883e-06
1.85251e-06
1.85045e-06
1.8505e-06
1.85052e-06
1.85053e-06
1.85053e-06
1.85053e-06
1.87954e-06
1.85851e-06
1.8594e-06
1.87835e-06
1.85053e-06
1.85053e-06
1.85053e-06
1.85053e-06
1.89759e-06
1.87446e-06
1.85556e-06
1.85121e-06
1.86125e-06
1.88314e-06
1.87588e-06
1.87248e-06
1.87971e-06
1.87565e-06
1.88788e-06
1.86026e-06
1.85886e-06
1.85887e-06
1.85851e-06
1.85535e-06
1.8278e-06
1.8156e-06
1.81966e-06
1.82205e-06
1.82709e-06
1.82945e-06
1.82666e-06
1.83323e-06
1.82504e-06
1.81956e-06
1.82294e-06
1.82436e-06
1.82432e-06
1.8243e-06
1.8243e-06
1.85263e-06
1.83496e-06
1.82192e-06
1.82436e-06
1.82435e-06
1.82432e-06
1.8243e-06
1.8243e-06
1.8243e-06
1.85686e-06
1.83376e-06
1.82982e-06
1.82767e-06
1.82433e-06
1.82432e-06
1.8243e-06
1.82429e-06
1.8243e-06
1.82429e-06
1.84967e-06
1.83266e-06
1.81349e-06
1.82925e-06
1.82422e-06
1.82426e-06
1.82427e-06
1.82428e-06
1.82429e-06
1.82429e-06
1.84624e-06
1.8326e-06
1.82577e-06
1.8242e-06
1.82423e-06
1.82426e-06
1.82428e-06
1.82428e-06
1.82429e-06
1.85332e-06
1.83227e-06
1.83303e-06
1.85195e-06
1.82425e-06
1.82426e-06
1.82428e-06
1.82428e-06
1.87137e-06
1.84825e-06
1.82936e-06
1.82499e-06
1.83531e-06
1.85685e-06
1.84974e-06
1.84629e-06
1.85352e-06
1.84947e-06
1.86169e-06
1.83403e-06
1.83247e-06
1.83254e-06
1.83247e-06
1.82925e-06
1.80152e-06
1.78925e-06
1.79318e-06
1.79609e-06
1.80083e-06
1.80315e-06
1.80035e-06
1.80694e-06
1.79873e-06
1.79335e-06
1.79674e-06
1.79799e-06
1.79798e-06
1.79797e-06
1.79797e-06
1.82631e-06
1.80863e-06
1.79614e-06
1.79797e-06
1.79798e-06
1.79798e-06
1.79797e-06
1.79797e-06
1.79797e-06
1.83052e-06
1.80742e-06
1.80251e-06
1.80038e-06
1.79796e-06
1.79797e-06
1.79797e-06
1.79797e-06
1.79797e-06
1.79797e-06
1.82339e-06
1.80636e-06
1.78853e-06
1.8029e-06
1.79794e-06
1.79796e-06
1.79797e-06
1.79797e-06
1.79797e-06
1.79797e-06
1.81994e-06
1.80631e-06
1.79965e-06
1.79798e-06
1.79797e-06
1.79797e-06
1.79797e-06
1.79797e-06
1.79797e-06
1.82702e-06
1.80598e-06
1.80695e-06
1.826e-06
1.79797e-06
1.79797e-06
1.79797e-06
1.79797e-06
1.84495e-06
1.82193e-06
1.80306e-06
1.79884e-06
1.80871e-06
1.83048e-06
1.82347e-06
1.81999e-06
1.8273e-06
1.82323e-06
1.83539e-06
1.80762e-06
1.80624e-06
1.80628e-06
1.80603e-06
1.80284e-06
1.77518e-06
1.76294e-06
1.7668e-06
1.7698e-06
1.77449e-06
1.77679e-06
1.77399e-06
1.78058e-06
1.77238e-06
1.76699e-06
1.77017e-06
1.77161e-06
1.77161e-06
1.77161e-06
1.77161e-06
1.79996e-06
1.78228e-06
1.76971e-06
1.77161e-06
1.77161e-06
1.77161e-06
1.77161e-06
1.77161e-06
1.77161e-06
1.80416e-06
1.78106e-06
1.77478e-06
1.77439e-06
1.77161e-06
1.77161e-06
1.77161e-06
1.77161e-06
1.77161e-06
1.77162e-06
1.79702e-06
1.77996e-06
1.76281e-06
1.77667e-06
1.7716e-06
1.77161e-06
1.77161e-06
1.77161e-06
1.77161e-06
1.77162e-06
1.79358e-06
1.77995e-06
1.77363e-06
1.7716e-06
1.77161e-06
1.77162e-06
1.77161e-06
1.77161e-06
1.77162e-06
1.80066e-06
1.77967e-06
1.78057e-06
1.79963e-06
1.77163e-06
1.77162e-06
1.77161e-06
1.77161e-06
1.81857e-06
1.79556e-06
1.77671e-06
1.77259e-06
1.78254e-06
1.80424e-06
1.79706e-06
1.79358e-06
1.80091e-06
1.79685e-06
1.80903e-06
1.78135e-06
1.77987e-06
1.7798e-06
1.77957e-06
1.77644e-06
1.74881e-06
1.73655e-06
1.74045e-06
1.74344e-06
1.74812e-06
1.75043e-06
1.74762e-06
1.75421e-06
1.746e-06
1.74069e-06
1.74379e-06
1.74524e-06
1.74523e-06
1.74523e-06
1.74523e-06
1.77357e-06
1.75588e-06
1.74359e-06
1.74524e-06
1.74523e-06
1.74523e-06
1.74523e-06
1.74523e-06
1.74523e-06
1.77771e-06
1.75468e-06
1.74872e-06
1.74808e-06
1.74524e-06
1.74523e-06
1.74523e-06
1.74523e-06
1.74523e-06
1.74523e-06
1.77068e-06
1.7536e-06
1.7366e-06
1.75032e-06
1.74524e-06
1.74523e-06
1.74523e-06
1.74523e-06
1.74523e-06
1.74523e-06
1.76721e-06
1.7536e-06
1.7474e-06
1.74525e-06
1.74523e-06
1.74523e-06
1.74523e-06
1.74523e-06
1.74523e-06
1.77426e-06
1.75329e-06
1.75392e-06
1.7734e-06
1.74523e-06
1.74523e-06
1.74524e-06
1.74523e-06
1.79219e-06
1.76919e-06
1.75035e-06
1.74617e-06
1.75604e-06
1.77777e-06